V -t * -v 1.0a5 -a 0
A -t * -n 1 -p 0 -o 0xffffffff -c 31 -a 1
A -t * -h 1 -m 2147483647 -s 0
n -t * -a 4 -s 4 -S UP -v circle -c black -i black
n -t * -a 0 -s 0 -S UP -v circle -c black -i black
n -t * -a 9 -s 9 -S UP -v circle -c black -i black
n -t * -a 5 -s 5 -S UP -v circle -c black -i black
n -t * -a 1 -s 1 -S UP -v circle -c black -i black
n -t * -a 6 -s 6 -S UP -v circle -c black -i black
n -t * -a 2 -s 2 -S UP -v circle -c black -i black
n -t * -a 7 -s 7 -S UP -v circle -c black -i black
n -t * -a 3 -s 3 -S UP -v circle -c black -i black
l -t * -s 9 -d 0 -S UP -r 1000000 -D 0.10000000000000001 -c black -O right
X -t * -n 8 -r 1Mb -D 100ms -o left
L -t * -s 8 -d 0 -o up
L -t * -s 8 -d 1 -o down
L -t * -s 8 -d 2 -o up
L -t * -s 8 -d 3 -o down
L -t * -s 8 -d 4 -o up
L -t * -s 8 -d 5 -o down
L -t * -s 8 -d 6 -o up
L -t * -s 8 -d 7 -o down
+ -t 0 -s 9 -d 0 -p tcp -e 1000 -c 0 -i 0 -a 0 -x {9.0 7.0 0 ------- null}
- -t 0 -s 9 -d 0 -p tcp -e 1000 -c 0 -i 0 -a 0 -x {9.0 7.0 0 ------- null}
h -t 0 -s 9 -d 0 -p tcp -e 1000 -c 0 -i 0 -a 0 -x {9.0 7.0 -1 ------- null}
v -t 0 -e take_snapshot
v -t 0.10000000000000001 -e take_snapshot
r -t 0.108 -s 9 -d 0 -p tcp -e 1000 -c 0 -i 0 -a 0 -x {9.0 7.0 0 ------- null}
h -t 0.108 -s 0 -d 8 -p tcp -e 1000 -c 0 -i 0 -a 0 -x {9.0 7.0 0 ------- null}
v -t 0.20000000000000001 -e take_snapshot
+ -t 0.208 -s 0 -d 8 -p tcp -e 1000 -c 0 -i 0 -a 0 -x {9.0 7.0 0 ------- null}
- -t 0.208 -s 0 -d 8 -p tcp -e 1000 -c 0 -i 0 -a 0 -x {9.0 7.0 0 ------- null}
h -t 0.208 -s 0 -d 8 -p tcp -e 1000 -c 0 -i 0 -a 0 -x {9.0 7.0 -1 ------- null}
v -t 0.29999999999999999 -e take_snapshot
r -t 0.316116 -s 8 -d 7 -p tcp -e 1000 -c 0 -i 0 -a 0 -x {9.0 7.0 0 ------- null}
h -t 0.316116 -s 7 -d 8 -p ack -e 40 -c 0 -i 1 -a 0 -x {7.0 9.0 0 ------- null}
v -t 0.40000000000000002 -e take_snapshot
+ -t 0.416116 -s 7 -d 8 -p ack -e 40 -c 0 -i 1 -a 0 -x {7.0 9.0 0 ------- null}
- -t 0.416116 -s 7 -d 8 -p ack -e 40 -c 0 -i 1 -a 0 -x {7.0 9.0 0 ------- null}
h -t 0.416116 -s 7 -d 8 -p ack -e 40 -c 0 -i 1 -a 0 -x {7.0 9.0 -1 ------- null}
v -t 0.5 -e take_snapshot
r -t 0.516632 -s 8 -d 0 -p ack -e 40 -c 0 -i 1 -a 0 -x {7.0 9.0 0 ------- null}
+ -t 0.516632 -s 0 -d 9 -p ack -e 40 -c 0 -i 1 -a 0 -x {7.0 9.0 0 ------- null}
- -t 0.516632 -s 0 -d 9 -p ack -e 40 -c 0 -i 1 -a 0 -x {7.0 9.0 0 ------- null}
h -t 0.516632 -s 0 -d 9 -p ack -e 40 -c 0 -i 1 -a 0 -x {7.0 9.0 -1 ------- null}
v -t 0.59999999999999998 -e take_snapshot
r -t 0.616952 -s 0 -d 9 -p ack -e 40 -c 0 -i 1 -a 0 -x {7.0 9.0 0 ------- null}
+ -t 0.616952 -s 9 -d 0 -p tcp -e 1000 -c 0 -i 2 -a 0 -x {9.0 7.0 1 ------- null}
- -t 0.616952 -s 9 -d 0 -p tcp -e 1000 -c 0 -i 2 -a 0 -x {9.0 7.0 1 ------- null}
h -t 0.616952 -s 9 -d 0 -p tcp -e 1000 -c 0 -i 2 -a 0 -x {9.0 7.0 -1 ------- null}
+ -t 0.616952 -s 9 -d 0 -p tcp -e 1000 -c 0 -i 3 -a 0 -x {9.0 7.0 2 ------- null}
- -t 0.624952 -s 9 -d 0 -p tcp -e 1000 -c 0 -i 3 -a 0 -x {9.0 7.0 2 ------- null}
h -t 0.624952 -s 9 -d 0 -p tcp -e 1000 -c 0 -i 3 -a 0 -x {9.0 7.0 -1 ------- null}
v -t 0.69999999999999996 -e take_snapshot
r -t 0.724952 -s 9 -d 0 -p tcp -e 1000 -c 0 -i 2 -a 0 -x {9.0 7.0 1 ------- null}
h -t 0.724952 -s 0 -d 8 -p tcp -e 1000 -c 0 -i 2 -a 0 -x {9.0 7.0 1 ------- null}
r -t 0.732952 -s 9 -d 0 -p tcp -e 1000 -c 0 -i 3 -a 0 -x {9.0 7.0 2 ------- null}
h -t 0.732952 -s 0 -d 8 -p tcp -e 1000 -c 0 -i 3 -a 0 -x {9.0 7.0 2 ------- null}
v -t 0.80000000000000004 -e take_snapshot
+ -t 0.824952 -s 0 -d 8 -p tcp -e 1000 -c 0 -i 2 -a 0 -x {9.0 7.0 1 ------- null}
- -t 0.824952 -s 0 -d 8 -p tcp -e 1000 -c 0 -i 2 -a 0 -x {9.0 7.0 1 ------- null}
h -t 0.824952 -s 0 -d 8 -p tcp -e 1000 -c 0 -i 2 -a 0 -x {9.0 7.0 -1 ------- null}
+ -t 0.832952 -s 0 -d 8 -p tcp -e 1000 -c 0 -i 3 -a 0 -x {9.0 7.0 2 ------- null}
- -t 0.83316 -s 0 -d 8 -p tcp -e 1000 -c 0 -i 3 -a 0 -x {9.0 7.0 2 ------- null}
h -t 0.83316 -s 0 -d 8 -p tcp -e 1000 -c 0 -i 3 -a 0 -x {9.0 7.0 -1 ------- null}
v -t 0.90000000000000002 -e take_snapshot
r -t 0.933068 -s 8 -d 7 -p tcp -e 1000 -c 0 -i 2 -a 0 -x {9.0 7.0 1 ------- null}
h -t 0.933068 -s 7 -d 8 -p ack -e 40 -c 0 -i 4 -a 0 -x {7.0 9.0 1 ------- null}
r -t 0.941276 -s 8 -d 7 -p tcp -e 1000 -c 0 -i 3 -a 0 -x {9.0 7.0 2 ------- null}
h -t 0.941276 -s 7 -d 8 -p ack -e 40 -c 0 -i 5 -a 0 -x {7.0 9.0 2 ------- null}
+ -t 1.033068 -s 7 -d 8 -p ack -e 40 -c 0 -i 4 -a 0 -x {7.0 9.0 1 ------- null}
- -t 1.033068 -s 7 -d 8 -p ack -e 40 -c 0 -i 4 -a 0 -x {7.0 9.0 1 ------- null}
h -t 1.033068 -s 7 -d 8 -p ack -e 40 -c 0 -i 4 -a 0 -x {7.0 9.0 -1 ------- null}
+ -t 1.041276 -s 7 -d 8 -p ack -e 40 -c 0 -i 5 -a 0 -x {7.0 9.0 2 ------- null}
- -t 1.041276 -s 7 -d 8 -p ack -e 40 -c 0 -i 5 -a 0 -x {7.0 9.0 2 ------- null}
h -t 1.041276 -s 7 -d 8 -p ack -e 40 -c 0 -i 5 -a 0 -x {7.0 9.0 -1 ------- null}
r -t 1.133584 -s 8 -d 0 -p ack -e 40 -c 0 -i 4 -a 0 -x {7.0 9.0 1 ------- null}
+ -t 1.133584 -s 0 -d 9 -p ack -e 40 -c 0 -i 4 -a 0 -x {7.0 9.0 1 ------- null}
- -t 1.133584 -s 0 -d 9 -p ack -e 40 -c 0 -i 4 -a 0 -x {7.0 9.0 1 ------- null}
h -t 1.133584 -s 0 -d 9 -p ack -e 40 -c 0 -i 4 -a 0 -x {7.0 9.0 -1 ------- null}
r -t 1.141792 -s 8 -d 0 -p ack -e 40 -c 0 -i 5 -a 0 -x {7.0 9.0 2 ------- null}
+ -t 1.141792 -s 0 -d 9 -p ack -e 40 -c 0 -i 5 -a 0 -x {7.0 9.0 2 ------- null}
- -t 1.141792 -s 0 -d 9 -p ack -e 40 -c 0 -i 5 -a 0 -x {7.0 9.0 2 ------- null}
h -t 1.141792 -s 0 -d 9 -p ack -e 40 -c 0 -i 5 -a 0 -x {7.0 9.0 -1 ------- null}
v -t 1.2 -e take_snapshot
r -t 1.233904 -s 0 -d 9 -p ack -e 40 -c 0 -i 4 -a 0 -x {7.0 9.0 1 ------- null}
+ -t 1.233904 -s 9 -d 0 -p tcp -e 1000 -c 0 -i 6 -a 0 -x {9.0 7.0 3 ------- null}
- -t 1.233904 -s 9 -d 0 -p tcp -e 1000 -c 0 -i 6 -a 0 -x {9.0 7.0 3 ------- null}
h -t 1.233904 -s 9 -d 0 -p tcp -e 1000 -c 0 -i 6 -a 0 -x {9.0 7.0 -1 ------- null}
+ -t 1.233904 -s 9 -d 0 -p tcp -e 1000 -c 0 -i 7 -a 0 -x {9.0 7.0 4 ------- null}
- -t 1.241904 -s 9 -d 0 -p tcp -e 1000 -c 0 -i 7 -a 0 -x {9.0 7.0 4 ------- null}
h -t 1.241904 -s 9 -d 0 -p tcp -e 1000 -c 0 -i 7 -a 0 -x {9.0 7.0 -1 ------- null}
r -t 1.242112 -s 0 -d 9 -p ack -e 40 -c 0 -i 5 -a 0 -x {7.0 9.0 2 ------- null}
+ -t 1.242112 -s 9 -d 0 -p tcp -e 1000 -c 0 -i 8 -a 0 -x {9.0 7.0 5 ------- null}
+ -t 1.242112 -s 9 -d 0 -p tcp -e 1000 -c 0 -i 9 -a 0 -x {9.0 7.0 6 ------- null}
- -t 1.249904 -s 9 -d 0 -p tcp -e 1000 -c 0 -i 8 -a 0 -x {9.0 7.0 5 ------- null}
h -t 1.249904 -s 9 -d 0 -p tcp -e 1000 -c 0 -i 8 -a 0 -x {9.0 7.0 -1 ------- null}
- -t 1.257904 -s 9 -d 0 -p tcp -e 1000 -c 0 -i 9 -a 0 -x {9.0 7.0 6 ------- null}
h -t 1.257904 -s 9 -d 0 -p tcp -e 1000 -c 0 -i 9 -a 0 -x {9.0 7.0 -1 ------- null}
r -t 1.341904 -s 9 -d 0 -p tcp -e 1000 -c 0 -i 6 -a 0 -x {9.0 7.0 3 ------- null}
h -t 1.341904 -s 0 -d 8 -p tcp -e 1000 -c 0 -i 6 -a 0 -x {9.0 7.0 3 ------- null}
r -t 1.349904 -s 9 -d 0 -p tcp -e 1000 -c 0 -i 7 -a 0 -x {9.0 7.0 4 ------- null}
h -t 1.349904 -s 0 -d 8 -p tcp -e 1000 -c 0 -i 7 -a 0 -x {9.0 7.0 4 ------- null}
r -t 1.357904 -s 9 -d 0 -p tcp -e 1000 -c 0 -i 8 -a 0 -x {9.0 7.0 5 ------- null}
h -t 1.357904 -s 0 -d 8 -p tcp -e 1000 -c 0 -i 8 -a 0 -x {9.0 7.0 5 ------- null}
r -t 1.365904 -s 9 -d 0 -p tcp -e 1000 -c 0 -i 9 -a 0 -x {9.0 7.0 6 ------- null}
h -t 1.365904 -s 0 -d 8 -p tcp -e 1000 -c 0 -i 9 -a 0 -x {9.0 7.0 6 ------- null}
+ -t 1.441904 -s 0 -d 8 -p tcp -e 1000 -c 0 -i 6 -a 0 -x {9.0 7.0 3 ------- null}
- -t 1.441904 -s 0 -d 8 -p tcp -e 1000 -c 0 -i 6 -a 0 -x {9.0 7.0 3 ------- null}
h -t 1.441904 -s 0 -d 8 -p tcp -e 1000 -c 0 -i 6 -a 0 -x {9.0 7.0 -1 ------- null}
+ -t 1.449904 -s 0 -d 8 -p tcp -e 1000 -c 0 -i 7 -a 0 -x {9.0 7.0 4 ------- null}
- -t 1.450112 -s 0 -d 8 -p tcp -e 1000 -c 0 -i 7 -a 0 -x {9.0 7.0 4 ------- null}
h -t 1.450112 -s 0 -d 8 -p tcp -e 1000 -c 0 -i 7 -a 0 -x {9.0 7.0 -1 ------- null}
+ -t 1.457904 -s 0 -d 8 -p tcp -e 1000 -c 0 -i 8 -a 0 -x {9.0 7.0 5 ------- null}
- -t 1.45832 -s 0 -d 8 -p tcp -e 1000 -c 0 -i 8 -a 0 -x {9.0 7.0 5 ------- null}
h -t 1.45832 -s 0 -d 8 -p tcp -e 1000 -c 0 -i 8 -a 0 -x {9.0 7.0 -1 ------- null}
+ -t 1.465904 -s 0 -d 8 -p tcp -e 1000 -c 0 -i 9 -a 0 -x {9.0 7.0 6 ------- null}
- -t 1.466528 -s 0 -d 8 -p tcp -e 1000 -c 0 -i 9 -a 0 -x {9.0 7.0 6 ------- null}
h -t 1.466528 -s 0 -d 8 -p tcp -e 1000 -c 0 -i 9 -a 0 -x {9.0 7.0 -1 ------- null}
v -t 1.5 -e take_snapshot
r -t 1.55002 -s 8 -d 7 -p tcp -e 1000 -c 0 -i 6 -a 0 -x {9.0 7.0 3 ------- null}
h -t 1.55002 -s 7 -d 8 -p ack -e 40 -c 0 -i 10 -a 0 -x {7.0 9.0 3 ------- null}
r -t 1.558228 -s 8 -d 7 -p tcp -e 1000 -c 0 -i 7 -a 0 -x {9.0 7.0 4 ------- null}
h -t 1.558228 -s 7 -d 8 -p ack -e 40 -c 0 -i 11 -a 0 -x {7.0 9.0 4 ------- null}
r -t 1.566436 -s 8 -d 7 -p tcp -e 1000 -c 0 -i 8 -a 0 -x {9.0 7.0 5 ------- null}
h -t 1.566436 -s 7 -d 8 -p ack -e 40 -c 0 -i 12 -a 0 -x {7.0 9.0 5 ------- null}
r -t 1.574644 -s 8 -d 7 -p tcp -e 1000 -c 0 -i 9 -a 0 -x {9.0 7.0 6 ------- null}
h -t 1.574644 -s 7 -d 8 -p ack -e 40 -c 0 -i 13 -a 0 -x {7.0 9.0 6 ------- null}
+ -t 1.65002 -s 7 -d 8 -p ack -e 40 -c 0 -i 10 -a 0 -x {7.0 9.0 3 ------- null}
- -t 1.65002 -s 7 -d 8 -p ack -e 40 -c 0 -i 10 -a 0 -x {7.0 9.0 3 ------- null}
h -t 1.65002 -s 7 -d 8 -p ack -e 40 -c 0 -i 10 -a 0 -x {7.0 9.0 -1 ------- null}
+ -t 1.658228 -s 7 -d 8 -p ack -e 40 -c 0 -i 11 -a 0 -x {7.0 9.0 4 ------- null}
- -t 1.658228 -s 7 -d 8 -p ack -e 40 -c 0 -i 11 -a 0 -x {7.0 9.0 4 ------- null}
h -t 1.658228 -s 7 -d 8 -p ack -e 40 -c 0 -i 11 -a 0 -x {7.0 9.0 -1 ------- null}
+ -t 1.666436 -s 7 -d 8 -p ack -e 40 -c 0 -i 12 -a 0 -x {7.0 9.0 5 ------- null}
- -t 1.666436 -s 7 -d 8 -p ack -e 40 -c 0 -i 12 -a 0 -x {7.0 9.0 5 ------- null}
h -t 1.666436 -s 7 -d 8 -p ack -e 40 -c 0 -i 12 -a 0 -x {7.0 9.0 -1 ------- null}
+ -t 1.674644 -s 7 -d 8 -p ack -e 40 -c 0 -i 13 -a 0 -x {7.0 9.0 6 ------- null}
- -t 1.674644 -s 7 -d 8 -p ack -e 40 -c 0 -i 13 -a 0 -x {7.0 9.0 6 ------- null}
h -t 1.674644 -s 7 -d 8 -p ack -e 40 -c 0 -i 13 -a 0 -x {7.0 9.0 -1 ------- null}
r -t 1.750536 -s 8 -d 0 -p ack -e 40 -c 0 -i 10 -a 0 -x {7.0 9.0 3 ------- null}
+ -t 1.750536 -s 0 -d 9 -p ack -e 40 -c 0 -i 10 -a 0 -x {7.0 9.0 3 ------- null}
- -t 1.750536 -s 0 -d 9 -p ack -e 40 -c 0 -i 10 -a 0 -x {7.0 9.0 3 ------- null}
h -t 1.750536 -s 0 -d 9 -p ack -e 40 -c 0 -i 10 -a 0 -x {7.0 9.0 -1 ------- null}
r -t 1.758744 -s 8 -d 0 -p ack -e 40 -c 0 -i 11 -a 0 -x {7.0 9.0 4 ------- null}
+ -t 1.758744 -s 0 -d 9 -p ack -e 40 -c 0 -i 11 -a 0 -x {7.0 9.0 4 ------- null}
- -t 1.758744 -s 0 -d 9 -p ack -e 40 -c 0 -i 11 -a 0 -x {7.0 9.0 4 ------- null}
h -t 1.758744 -s 0 -d 9 -p ack -e 40 -c 0 -i 11 -a 0 -x {7.0 9.0 -1 ------- null}
r -t 1.766952 -s 8 -d 0 -p ack -e 40 -c 0 -i 12 -a 0 -x {7.0 9.0 5 ------- null}
+ -t 1.766952 -s 0 -d 9 -p ack -e 40 -c 0 -i 12 -a 0 -x {7.0 9.0 5 ------- null}
- -t 1.766952 -s 0 -d 9 -p ack -e 40 -c 0 -i 12 -a 0 -x {7.0 9.0 5 ------- null}
h -t 1.766952 -s 0 -d 9 -p ack -e 40 -c 0 -i 12 -a 0 -x {7.0 9.0 -1 ------- null}
r -t 1.77516 -s 8 -d 0 -p ack -e 40 -c 0 -i 13 -a 0 -x {7.0 9.0 6 ------- null}
+ -t 1.77516 -s 0 -d 9 -p ack -e 40 -c 0 -i 13 -a 0 -x {7.0 9.0 6 ------- null}
- -t 1.77516 -s 0 -d 9 -p ack -e 40 -c 0 -i 13 -a 0 -x {7.0 9.0 6 ------- null}
h -t 1.77516 -s 0 -d 9 -p ack -e 40 -c 0 -i 13 -a 0 -x {7.0 9.0 -1 ------- null}
v -t 1.8 -e take_snapshot
r -t 1.850856 -s 0 -d 9 -p ack -e 40 -c 0 -i 10 -a 0 -x {7.0 9.0 3 ------- null}
+ -t 1.850856 -s 9 -d 0 -p tcp -e 1000 -c 0 -i 14 -a 0 -x {9.0 7.0 7 ------- null}
- -t 1.850856 -s 9 -d 0 -p tcp -e 1000 -c 0 -i 14 -a 0 -x {9.0 7.0 7 ------- null}
h -t 1.850856 -s 9 -d 0 -p tcp -e 1000 -c 0 -i 14 -a 0 -x {9.0 7.0 -1 ------- null}
+ -t 1.850856 -s 9 -d 0 -p tcp -e 1000 -c 0 -i 15 -a 0 -x {9.0 7.0 8 ------- null}
- -t 1.858856 -s 9 -d 0 -p tcp -e 1000 -c 0 -i 15 -a 0 -x {9.0 7.0 8 ------- null}
h -t 1.858856 -s 9 -d 0 -p tcp -e 1000 -c 0 -i 15 -a 0 -x {9.0 7.0 -1 ------- null}
r -t 1.859064 -s 0 -d 9 -p ack -e 40 -c 0 -i 11 -a 0 -x {7.0 9.0 4 ------- null}
+ -t 1.859064 -s 9 -d 0 -p tcp -e 1000 -c 0 -i 16 -a 0 -x {9.0 7.0 9 ------- null}
+ -t 1.859064 -s 9 -d 0 -p tcp -e 1000 -c 0 -i 17 -a 0 -x {9.0 7.0 10 ------- null}
- -t 1.866856 -s 9 -d 0 -p tcp -e 1000 -c 0 -i 16 -a 0 -x {9.0 7.0 9 ------- null}
h -t 1.866856 -s 9 -d 0 -p tcp -e 1000 -c 0 -i 16 -a 0 -x {9.0 7.0 -1 ------- null}
r -t 1.867272 -s 0 -d 9 -p ack -e 40 -c 0 -i 12 -a 0 -x {7.0 9.0 5 ------- null}
+ -t 1.867272 -s 9 -d 0 -p tcp -e 1000 -c 0 -i 18 -a 0 -x {9.0 7.0 11 ------- null}
+ -t 1.867272 -s 9 -d 0 -p tcp -e 1000 -c 0 -i 19 -a 0 -x {9.0 7.0 12 ------- null}
- -t 1.874856 -s 9 -d 0 -p tcp -e 1000 -c 0 -i 17 -a 0 -x {9.0 7.0 10 ------- null}
h -t 1.874856 -s 9 -d 0 -p tcp -e 1000 -c 0 -i 17 -a 0 -x {9.0 7.0 -1 ------- null}
r -t 1.87548 -s 0 -d 9 -p ack -e 40 -c 0 -i 13 -a 0 -x {7.0 9.0 6 ------- null}
+ -t 1.87548 -s 9 -d 0 -p tcp -e 1000 -c 0 -i 20 -a 0 -x {9.0 7.0 13 ------- null}
+ -t 1.87548 -s 9 -d 0 -p tcp -e 1000 -c 0 -i 21 -a 0 -x {9.0 7.0 14 ------- null}
- -t 1.882856 -s 9 -d 0 -p tcp -e 1000 -c 0 -i 18 -a 0 -x {9.0 7.0 11 ------- null}
h -t 1.882856 -s 9 -d 0 -p tcp -e 1000 -c 0 -i 18 -a 0 -x {9.0 7.0 -1 ------- null}
- -t 1.890856 -s 9 -d 0 -p tcp -e 1000 -c 0 -i 19 -a 0 -x {9.0 7.0 12 ------- null}
h -t 1.890856 -s 9 -d 0 -p tcp -e 1000 -c 0 -i 19 -a 0 -x {9.0 7.0 -1 ------- null}
- -t 1.898856 -s 9 -d 0 -p tcp -e 1000 -c 0 -i 20 -a 0 -x {9.0 7.0 13 ------- null}
h -t 1.898856 -s 9 -d 0 -p tcp -e 1000 -c 0 -i 20 -a 0 -x {9.0 7.0 -1 ------- null}
v -t 1.8999999999999999 -e take_snapshot
- -t 1.906856 -s 9 -d 0 -p tcp -e 1000 -c 0 -i 21 -a 0 -x {9.0 7.0 14 ------- null}
h -t 1.906856 -s 9 -d 0 -p tcp -e 1000 -c 0 -i 21 -a 0 -x {9.0 7.0 -1 ------- null}
r -t 1.958856 -s 9 -d 0 -p tcp -e 1000 -c 0 -i 14 -a 0 -x {9.0 7.0 7 ------- null}
h -t 1.958856 -s 0 -d 8 -p tcp -e 1000 -c 0 -i 14 -a 0 -x {9.0 7.0 7 ------- null}
r -t 1.966856 -s 9 -d 0 -p tcp -e 1000 -c 0 -i 15 -a 0 -x {9.0 7.0 8 ------- null}
h -t 1.966856 -s 0 -d 8 -p tcp -e 1000 -c 0 -i 15 -a 0 -x {9.0 7.0 8 ------- null}
r -t 1.974856 -s 9 -d 0 -p tcp -e 1000 -c 0 -i 16 -a 0 -x {9.0 7.0 9 ------- null}
h -t 1.974856 -s 0 -d 8 -p tcp -e 1000 -c 0 -i 16 -a 0 -x {9.0 7.0 9 ------- null}
r -t 1.982856 -s 9 -d 0 -p tcp -e 1000 -c 0 -i 17 -a 0 -x {9.0 7.0 10 ------- null}
h -t 1.982856 -s 0 -d 8 -p tcp -e 1000 -c 0 -i 17 -a 0 -x {9.0 7.0 10 ------- null}
r -t 1.990856 -s 9 -d 0 -p tcp -e 1000 -c 0 -i 18 -a 0 -x {9.0 7.0 11 ------- null}
h -t 1.990856 -s 0 -d 8 -p tcp -e 1000 -c 0 -i 18 -a 0 -x {9.0 7.0 11 ------- null}
r -t 1.998856 -s 9 -d 0 -p tcp -e 1000 -c 0 -i 19 -a 0 -x {9.0 7.0 12 ------- null}
h -t 1.998856 -s 0 -d 8 -p tcp -e 1000 -c 0 -i 19 -a 0 -x {9.0 7.0 12 ------- null}
v -t 2 -e take_snapshot
r -t 2.006856 -s 9 -d 0 -p tcp -e 1000 -c 0 -i 20 -a 0 -x {9.0 7.0 13 ------- null}
h -t 2.006856 -s 0 -d 8 -p tcp -e 1000 -c 0 -i 20 -a 0 -x {9.0 7.0 13 ------- null}
r -t 2.014856 -s 9 -d 0 -p tcp -e 1000 -c 0 -i 21 -a 0 -x {9.0 7.0 14 ------- null}
h -t 2.014856 -s 0 -d 8 -p tcp -e 1000 -c 0 -i 21 -a 0 -x {9.0 7.0 14 ------- null}
+ -t 2.058856 -s 0 -d 8 -p tcp -e 1000 -c 0 -i 14 -a 0 -x {9.0 7.0 7 ------- null}
- -t 2.058856 -s 0 -d 8 -p tcp -e 1000 -c 0 -i 14 -a 0 -x {9.0 7.0 7 ------- null}
h -t 2.058856 -s 0 -d 8 -p tcp -e 1000 -c 0 -i 14 -a 0 -x {9.0 7.0 -1 ------- null}
+ -t 2.066856 -s 0 -d 8 -p tcp -e 1000 -c 0 -i 15 -a 0 -x {9.0 7.0 8 ------- null}
- -t 2.067064 -s 0 -d 8 -p tcp -e 1000 -c 0 -i 15 -a 0 -x {9.0 7.0 8 ------- null}
h -t 2.067064 -s 0 -d 8 -p tcp -e 1000 -c 0 -i 15 -a 0 -x {9.0 7.0 -1 ------- null}
+ -t 2.074856 -s 0 -d 8 -p tcp -e 1000 -c 0 -i 16 -a 0 -x {9.0 7.0 9 ------- null}
- -t 2.075272 -s 0 -d 8 -p tcp -e 1000 -c 0 -i 16 -a 0 -x {9.0 7.0 9 ------- null}
h -t 2.075272 -s 0 -d 8 -p tcp -e 1000 -c 0 -i 16 -a 0 -x {9.0 7.0 -1 ------- null}
+ -t 2.082856 -s 0 -d 8 -p tcp -e 1000 -c 0 -i 17 -a 0 -x {9.0 7.0 10 ------- null}
- -t 2.08348 -s 0 -d 8 -p tcp -e 1000 -c 0 -i 17 -a 0 -x {9.0 7.0 10 ------- null}
h -t 2.08348 -s 0 -d 8 -p tcp -e 1000 -c 0 -i 17 -a 0 -x {9.0 7.0 -1 ------- null}
+ -t 2.090856 -s 0 -d 8 -p tcp -e 1000 -c 0 -i 18 -a 0 -x {9.0 7.0 11 ------- null}
- -t 2.091688 -s 0 -d 8 -p tcp -e 1000 -c 0 -i 18 -a 0 -x {9.0 7.0 11 ------- null}
h -t 2.091688 -s 0 -d 8 -p tcp -e 1000 -c 0 -i 18 -a 0 -x {9.0 7.0 -1 ------- null}
+ -t 2.098856 -s 0 -d 8 -p tcp -e 1000 -c 0 -i 19 -a 0 -x {9.0 7.0 12 ------- null}
- -t 2.099896 -s 0 -d 8 -p tcp -e 1000 -c 0 -i 19 -a 0 -x {9.0 7.0 12 ------- null}
h -t 2.099896 -s 0 -d 8 -p tcp -e 1000 -c 0 -i 19 -a 0 -x {9.0 7.0 -1 ------- null}
v -t 2.1000000000000001 -e take_snapshot
+ -t 2.106856 -s 0 -d 8 -p tcp -e 1000 -c 0 -i 20 -a 0 -x {9.0 7.0 13 ------- null}
- -t 2.108104 -s 0 -d 8 -p tcp -e 1000 -c 0 -i 20 -a 0 -x {9.0 7.0 13 ------- null}
h -t 2.108104 -s 0 -d 8 -p tcp -e 1000 -c 0 -i 20 -a 0 -x {9.0 7.0 -1 ------- null}
+ -t 2.114856 -s 0 -d 8 -p tcp -e 1000 -c 0 -i 21 -a 0 -x {9.0 7.0 14 ------- null}
- -t 2.116312 -s 0 -d 8 -p tcp -e 1000 -c 0 -i 21 -a 0 -x {9.0 7.0 14 ------- null}
h -t 2.116312 -s 0 -d 8 -p tcp -e 1000 -c 0 -i 21 -a 0 -x {9.0 7.0 -1 ------- null}
r -t 2.166972 -s 8 -d 7 -p tcp -e 1000 -c 0 -i 14 -a 0 -x {9.0 7.0 7 ------- null}
h -t 2.166972 -s 7 -d 8 -p ack -e 40 -c 0 -i 22 -a 0 -x {7.0 9.0 7 ------- null}
r -t 2.17518 -s 8 -d 7 -p tcp -e 1000 -c 0 -i 15 -a 0 -x {9.0 7.0 8 ------- null}
h -t 2.17518 -s 7 -d 8 -p ack -e 40 -c 0 -i 23 -a 0 -x {7.0 9.0 8 ------- null}
r -t 2.183388 -s 8 -d 7 -p tcp -e 1000 -c 0 -i 16 -a 0 -x {9.0 7.0 9 ------- null}
h -t 2.183388 -s 7 -d 8 -p ack -e 40 -c 0 -i 24 -a 0 -x {7.0 9.0 9 ------- null}
r -t 2.191596 -s 8 -d 7 -p tcp -e 1000 -c 0 -i 17 -a 0 -x {9.0 7.0 10 ------- null}
h -t 2.191596 -s 7 -d 8 -p ack -e 40 -c 0 -i 25 -a 0 -x {7.0 9.0 10 ------- null}
r -t 2.199804 -s 8 -d 7 -p tcp -e 1000 -c 0 -i 18 -a 0 -x {9.0 7.0 11 ------- null}
h -t 2.199804 -s 7 -d 8 -p ack -e 40 -c 0 -i 26 -a 0 -x {7.0 9.0 11 ------- null}
v -t 2.2000000000000002 -e take_snapshot
r -t 2.208012 -s 8 -d 7 -p tcp -e 1000 -c 0 -i 19 -a 0 -x {9.0 7.0 12 ------- null}
h -t 2.208012 -s 7 -d 8 -p ack -e 40 -c 0 -i 27 -a 0 -x {7.0 9.0 12 ------- null}
r -t 2.21622 -s 8 -d 7 -p tcp -e 1000 -c 0 -i 20 -a 0 -x {9.0 7.0 13 ------- null}
h -t 2.21622 -s 7 -d 8 -p ack -e 40 -c 0 -i 28 -a 0 -x {7.0 9.0 13 ------- null}
r -t 2.224428 -s 8 -d 7 -p tcp -e 1000 -c 0 -i 21 -a 0 -x {9.0 7.0 14 ------- null}
h -t 2.224428 -s 7 -d 8 -p ack -e 40 -c 0 -i 29 -a 0 -x {7.0 9.0 14 ------- null}
+ -t 2.266972 -s 7 -d 8 -p ack -e 40 -c 0 -i 22 -a 0 -x {7.0 9.0 7 ------- null}
- -t 2.266972 -s 7 -d 8 -p ack -e 40 -c 0 -i 22 -a 0 -x {7.0 9.0 7 ------- null}
h -t 2.266972 -s 7 -d 8 -p ack -e 40 -c 0 -i 22 -a 0 -x {7.0 9.0 -1 ------- null}
+ -t 2.27518 -s 7 -d 8 -p ack -e 40 -c 0 -i 23 -a 0 -x {7.0 9.0 8 ------- null}
- -t 2.27518 -s 7 -d 8 -p ack -e 40 -c 0 -i 23 -a 0 -x {7.0 9.0 8 ------- null}
h -t 2.27518 -s 7 -d 8 -p ack -e 40 -c 0 -i 23 -a 0 -x {7.0 9.0 -1 ------- null}
+ -t 2.283388 -s 7 -d 8 -p ack -e 40 -c 0 -i 24 -a 0 -x {7.0 9.0 9 ------- null}
- -t 2.283388 -s 7 -d 8 -p ack -e 40 -c 0 -i 24 -a 0 -x {7.0 9.0 9 ------- null}
h -t 2.283388 -s 7 -d 8 -p ack -e 40 -c 0 -i 24 -a 0 -x {7.0 9.0 -1 ------- null}
+ -t 2.291596 -s 7 -d 8 -p ack -e 40 -c 0 -i 25 -a 0 -x {7.0 9.0 10 ------- null}
- -t 2.291596 -s 7 -d 8 -p ack -e 40 -c 0 -i 25 -a 0 -x {7.0 9.0 10 ------- null}
h -t 2.291596 -s 7 -d 8 -p ack -e 40 -c 0 -i 25 -a 0 -x {7.0 9.0 -1 ------- null}
+ -t 2.299804 -s 7 -d 8 -p ack -e 40 -c 0 -i 26 -a 0 -x {7.0 9.0 11 ------- null}
- -t 2.299804 -s 7 -d 8 -p ack -e 40 -c 0 -i 26 -a 0 -x {7.0 9.0 11 ------- null}
h -t 2.299804 -s 7 -d 8 -p ack -e 40 -c 0 -i 26 -a 0 -x {7.0 9.0 -1 ------- null}
v -t 2.2999999999999998 -e take_snapshot
+ -t 2.308012 -s 7 -d 8 -p ack -e 40 -c 0 -i 27 -a 0 -x {7.0 9.0 12 ------- null}
- -t 2.308012 -s 7 -d 8 -p ack -e 40 -c 0 -i 27 -a 0 -x {7.0 9.0 12 ------- null}
h -t 2.308012 -s 7 -d 8 -p ack -e 40 -c 0 -i 27 -a 0 -x {7.0 9.0 -1 ------- null}
+ -t 2.31622 -s 7 -d 8 -p ack -e 40 -c 0 -i 28 -a 0 -x {7.0 9.0 13 ------- null}
- -t 2.31622 -s 7 -d 8 -p ack -e 40 -c 0 -i 28 -a 0 -x {7.0 9.0 13 ------- null}
h -t 2.31622 -s 7 -d 8 -p ack -e 40 -c 0 -i 28 -a 0 -x {7.0 9.0 -1 ------- null}
+ -t 2.324428 -s 7 -d 8 -p ack -e 40 -c 0 -i 29 -a 0 -x {7.0 9.0 14 ------- null}
- -t 2.324428 -s 7 -d 8 -p ack -e 40 -c 0 -i 29 -a 0 -x {7.0 9.0 14 ------- null}
h -t 2.324428 -s 7 -d 8 -p ack -e 40 -c 0 -i 29 -a 0 -x {7.0 9.0 -1 ------- null}
r -t 2.367488 -s 8 -d 0 -p ack -e 40 -c 0 -i 22 -a 0 -x {7.0 9.0 7 ------- null}
+ -t 2.367488 -s 0 -d 9 -p ack -e 40 -c 0 -i 22 -a 0 -x {7.0 9.0 7 ------- null}
- -t 2.367488 -s 0 -d 9 -p ack -e 40 -c 0 -i 22 -a 0 -x {7.0 9.0 7 ------- null}
h -t 2.367488 -s 0 -d 9 -p ack -e 40 -c 0 -i 22 -a 0 -x {7.0 9.0 -1 ------- null}
r -t 2.375696 -s 8 -d 0 -p ack -e 40 -c 0 -i 23 -a 0 -x {7.0 9.0 8 ------- null}
+ -t 2.375696 -s 0 -d 9 -p ack -e 40 -c 0 -i 23 -a 0 -x {7.0 9.0 8 ------- null}
- -t 2.375696 -s 0 -d 9 -p ack -e 40 -c 0 -i 23 -a 0 -x {7.0 9.0 8 ------- null}
h -t 2.375696 -s 0 -d 9 -p ack -e 40 -c 0 -i 23 -a 0 -x {7.0 9.0 -1 ------- null}
r -t 2.383904 -s 8 -d 0 -p ack -e 40 -c 0 -i 24 -a 0 -x {7.0 9.0 9 ------- null}
+ -t 2.383904 -s 0 -d 9 -p ack -e 40 -c 0 -i 24 -a 0 -x {7.0 9.0 9 ------- null}
- -t 2.383904 -s 0 -d 9 -p ack -e 40 -c 0 -i 24 -a 0 -x {7.0 9.0 9 ------- null}
h -t 2.383904 -s 0 -d 9 -p ack -e 40 -c 0 -i 24 -a 0 -x {7.0 9.0 -1 ------- null}
r -t 2.392112 -s 8 -d 0 -p ack -e 40 -c 0 -i 25 -a 0 -x {7.0 9.0 10 ------- null}
+ -t 2.392112 -s 0 -d 9 -p ack -e 40 -c 0 -i 25 -a 0 -x {7.0 9.0 10 ------- null}
- -t 2.392112 -s 0 -d 9 -p ack -e 40 -c 0 -i 25 -a 0 -x {7.0 9.0 10 ------- null}
h -t 2.392112 -s 0 -d 9 -p ack -e 40 -c 0 -i 25 -a 0 -x {7.0 9.0 -1 ------- null}
v -t 2.3999999999999999 -e take_snapshot
r -t 2.40032 -s 8 -d 0 -p ack -e 40 -c 0 -i 26 -a 0 -x {7.0 9.0 11 ------- null}
+ -t 2.40032 -s 0 -d 9 -p ack -e 40 -c 0 -i 26 -a 0 -x {7.0 9.0 11 ------- null}
- -t 2.40032 -s 0 -d 9 -p ack -e 40 -c 0 -i 26 -a 0 -x {7.0 9.0 11 ------- null}
h -t 2.40032 -s 0 -d 9 -p ack -e 40 -c 0 -i 26 -a 0 -x {7.0 9.0 -1 ------- null}
r -t 2.408528 -s 8 -d 0 -p ack -e 40 -c 0 -i 27 -a 0 -x {7.0 9.0 12 ------- null}
+ -t 2.408528 -s 0 -d 9 -p ack -e 40 -c 0 -i 27 -a 0 -x {7.0 9.0 12 ------- null}
- -t 2.408528 -s 0 -d 9 -p ack -e 40 -c 0 -i 27 -a 0 -x {7.0 9.0 12 ------- null}
h -t 2.408528 -s 0 -d 9 -p ack -e 40 -c 0 -i 27 -a 0 -x {7.0 9.0 -1 ------- null}
r -t 2.416736 -s 8 -d 0 -p ack -e 40 -c 0 -i 28 -a 0 -x {7.0 9.0 13 ------- null}
+ -t 2.416736 -s 0 -d 9 -p ack -e 40 -c 0 -i 28 -a 0 -x {7.0 9.0 13 ------- null}
- -t 2.416736 -s 0 -d 9 -p ack -e 40 -c 0 -i 28 -a 0 -x {7.0 9.0 13 ------- null}
h -t 2.416736 -s 0 -d 9 -p ack -e 40 -c 0 -i 28 -a 0 -x {7.0 9.0 -1 ------- null}
r -t 2.424944 -s 8 -d 0 -p ack -e 40 -c 0 -i 29 -a 0 -x {7.0 9.0 14 ------- null}
+ -t 2.424944 -s 0 -d 9 -p ack -e 40 -c 0 -i 29 -a 0 -x {7.0 9.0 14 ------- null}
- -t 2.424944 -s 0 -d 9 -p ack -e 40 -c 0 -i 29 -a 0 -x {7.0 9.0 14 ------- null}
h -t 2.424944 -s 0 -d 9 -p ack -e 40 -c 0 -i 29 -a 0 -x {7.0 9.0 -1 ------- null}
r -t 2.467808 -s 0 -d 9 -p ack -e 40 -c 0 -i 22 -a 0 -x {7.0 9.0 7 ------- null}
+ -t 2.467808 -s 9 -d 0 -p tcp -e 1000 -c 0 -i 30 -a 0 -x {9.0 7.0 15 ------- null}
- -t 2.467808 -s 9 -d 0 -p tcp -e 1000 -c 0 -i 30 -a 0 -x {9.0 7.0 15 ------- null}
h -t 2.467808 -s 9 -d 0 -p tcp -e 1000 -c 0 -i 30 -a 0 -x {9.0 7.0 -1 ------- null}
+ -t 2.467808 -s 9 -d 0 -p tcp -e 1000 -c 0 -i 31 -a 0 -x {9.0 7.0 16 ------- null}
- -t 2.475808 -s 9 -d 0 -p tcp -e 1000 -c 0 -i 31 -a 0 -x {9.0 7.0 16 ------- null}
h -t 2.475808 -s 9 -d 0 -p tcp -e 1000 -c 0 -i 31 -a 0 -x {9.0 7.0 -1 ------- null}
r -t 2.476016 -s 0 -d 9 -p ack -e 40 -c 0 -i 23 -a 0 -x {7.0 9.0 8 ------- null}
+ -t 2.476016 -s 9 -d 0 -p tcp -e 1000 -c 0 -i 32 -a 0 -x {9.0 7.0 17 ------- null}
+ -t 2.476016 -s 9 -d 0 -p tcp -e 1000 -c 0 -i 33 -a 0 -x {9.0 7.0 18 ------- null}
- -t 2.483808 -s 9 -d 0 -p tcp -e 1000 -c 0 -i 32 -a 0 -x {9.0 7.0 17 ------- null}
h -t 2.483808 -s 9 -d 0 -p tcp -e 1000 -c 0 -i 32 -a 0 -x {9.0 7.0 -1 ------- null}
r -t 2.484224 -s 0 -d 9 -p ack -e 40 -c 0 -i 24 -a 0 -x {7.0 9.0 9 ------- null}
+ -t 2.484224 -s 9 -d 0 -p tcp -e 1000 -c 0 -i 34 -a 0 -x {9.0 7.0 19 ------- null}
+ -t 2.484224 -s 9 -d 0 -p tcp -e 1000 -c 0 -i 35 -a 0 -x {9.0 7.0 20 ------- null}
- -t 2.491808 -s 9 -d 0 -p tcp -e 1000 -c 0 -i 33 -a 0 -x {9.0 7.0 18 ------- null}
h -t 2.491808 -s 9 -d 0 -p tcp -e 1000 -c 0 -i 33 -a 0 -x {9.0 7.0 -1 ------- null}
r -t 2.492432 -s 0 -d 9 -p ack -e 40 -c 0 -i 25 -a 0 -x {7.0 9.0 10 ------- null}
+ -t 2.492432 -s 9 -d 0 -p tcp -e 1000 -c 0 -i 36 -a 0 -x {9.0 7.0 21 ------- null}
+ -t 2.492432 -s 9 -d 0 -p tcp -e 1000 -c 0 -i 37 -a 0 -x {9.0 7.0 22 ------- null}
- -t 2.499808 -s 9 -d 0 -p tcp -e 1000 -c 0 -i 34 -a 0 -x {9.0 7.0 19 ------- null}
h -t 2.499808 -s 9 -d 0 -p tcp -e 1000 -c 0 -i 34 -a 0 -x {9.0 7.0 -1 ------- null}
v -t 2.5 -e take_snapshot
r -t 2.50064 -s 0 -d 9 -p ack -e 40 -c 0 -i 26 -a 0 -x {7.0 9.0 11 ------- null}
+ -t 2.50064 -s 9 -d 0 -p tcp -e 1000 -c 0 -i 38 -a 0 -x {9.0 7.0 23 ------- null}
+ -t 2.50064 -s 9 -d 0 -p tcp -e 1000 -c 0 -i 39 -a 0 -x {9.0 7.0 24 ------- null}
- -t 2.507808 -s 9 -d 0 -p tcp -e 1000 -c 0 -i 35 -a 0 -x {9.0 7.0 20 ------- null}
h -t 2.507808 -s 9 -d 0 -p tcp -e 1000 -c 0 -i 35 -a 0 -x {9.0 7.0 -1 ------- null}
r -t 2.508848 -s 0 -d 9 -p ack -e 40 -c 0 -i 27 -a 0 -x {7.0 9.0 12 ------- null}
+ -t 2.508848 -s 9 -d 0 -p tcp -e 1000 -c 0 -i 40 -a 0 -x {9.0 7.0 25 ------- null}
+ -t 2.508848 -s 9 -d 0 -p tcp -e 1000 -c 0 -i 41 -a 0 -x {9.0 7.0 26 ------- null}
- -t 2.515808 -s 9 -d 0 -p tcp -e 1000 -c 0 -i 36 -a 0 -x {9.0 7.0 21 ------- null}
h -t 2.515808 -s 9 -d 0 -p tcp -e 1000 -c 0 -i 36 -a 0 -x {9.0 7.0 -1 ------- null}
r -t 2.517056 -s 0 -d 9 -p ack -e 40 -c 0 -i 28 -a 0 -x {7.0 9.0 13 ------- null}
+ -t 2.517056 -s 9 -d 0 -p tcp -e 1000 -c 0 -i 42 -a 0 -x {9.0 7.0 27 ------- null}
+ -t 2.517056 -s 9 -d 0 -p tcp -e 1000 -c 0 -i 43 -a 0 -x {9.0 7.0 28 ------- null}
- -t 2.523808 -s 9 -d 0 -p tcp -e 1000 -c 0 -i 37 -a 0 -x {9.0 7.0 22 ------- null}
h -t 2.523808 -s 9 -d 0 -p tcp -e 1000 -c 0 -i 37 -a 0 -x {9.0 7.0 -1 ------- null}
r -t 2.525264 -s 0 -d 9 -p ack -e 40 -c 0 -i 29 -a 0 -x {7.0 9.0 14 ------- null}
+ -t 2.525264 -s 9 -d 0 -p tcp -e 1000 -c 0 -i 44 -a 0 -x {9.0 7.0 29 ------- null}
- -t 2.531808 -s 9 -d 0 -p tcp -e 1000 -c 0 -i 38 -a 0 -x {9.0 7.0 23 ------- null}
h -t 2.531808 -s 9 -d 0 -p tcp -e 1000 -c 0 -i 38 -a 0 -x {9.0 7.0 -1 ------- null}
- -t 2.539808 -s 9 -d 0 -p tcp -e 1000 -c 0 -i 39 -a 0 -x {9.0 7.0 24 ------- null}
h -t 2.539808 -s 9 -d 0 -p tcp -e 1000 -c 0 -i 39 -a 0 -x {9.0 7.0 -1 ------- null}
- -t 2.547808 -s 9 -d 0 -p tcp -e 1000 -c 0 -i 40 -a 0 -x {9.0 7.0 25 ------- null}
h -t 2.547808 -s 9 -d 0 -p tcp -e 1000 -c 0 -i 40 -a 0 -x {9.0 7.0 -1 ------- null}
- -t 2.555808 -s 9 -d 0 -p tcp -e 1000 -c 0 -i 41 -a 0 -x {9.0 7.0 26 ------- null}
h -t 2.555808 -s 9 -d 0 -p tcp -e 1000 -c 0 -i 41 -a 0 -x {9.0 7.0 -1 ------- null}
- -t 2.563808 -s 9 -d 0 -p tcp -e 1000 -c 0 -i 42 -a 0 -x {9.0 7.0 27 ------- null}
h -t 2.563808 -s 9 -d 0 -p tcp -e 1000 -c 0 -i 42 -a 0 -x {9.0 7.0 -1 ------- null}
- -t 2.571808 -s 9 -d 0 -p tcp -e 1000 -c 0 -i 43 -a 0 -x {9.0 7.0 28 ------- null}
h -t 2.571808 -s 9 -d 0 -p tcp -e 1000 -c 0 -i 43 -a 0 -x {9.0 7.0 -1 ------- null}
r -t 2.575808 -s 9 -d 0 -p tcp -e 1000 -c 0 -i 30 -a 0 -x {9.0 7.0 15 ------- null}
h -t 2.575808 -s 0 -d 8 -p tcp -e 1000 -c 0 -i 30 -a 0 -x {9.0 7.0 15 ------- null}
- -t 2.579808 -s 9 -d 0 -p tcp -e 1000 -c 0 -i 44 -a 0 -x {9.0 7.0 29 ------- null}
h -t 2.579808 -s 9 -d 0 -p tcp -e 1000 -c 0 -i 44 -a 0 -x {9.0 7.0 -1 ------- null}
r -t 2.583808 -s 9 -d 0 -p tcp -e 1000 -c 0 -i 31 -a 0 -x {9.0 7.0 16 ------- null}
h -t 2.583808 -s 0 -d 8 -p tcp -e 1000 -c 0 -i 31 -a 0 -x {9.0 7.0 16 ------- null}
r -t 2.591808 -s 9 -d 0 -p tcp -e 1000 -c 0 -i 32 -a 0 -x {9.0 7.0 17 ------- null}
h -t 2.591808 -s 0 -d 8 -p tcp -e 1000 -c 0 -i 32 -a 0 -x {9.0 7.0 17 ------- null}
r -t 2.599808 -s 9 -d 0 -p tcp -e 1000 -c 0 -i 33 -a 0 -x {9.0 7.0 18 ------- null}
h -t 2.599808 -s 0 -d 8 -p tcp -e 1000 -c 0 -i 33 -a 0 -x {9.0 7.0 18 ------- null}
r -t 2.607808 -s 9 -d 0 -p tcp -e 1000 -c 0 -i 34 -a 0 -x {9.0 7.0 19 ------- null}
h -t 2.607808 -s 0 -d 8 -p tcp -e 1000 -c 0 -i 34 -a 0 -x {9.0 7.0 19 ------- null}
r -t 2.615808 -s 9 -d 0 -p tcp -e 1000 -c 0 -i 35 -a 0 -x {9.0 7.0 20 ------- null}
h -t 2.615808 -s 0 -d 8 -p tcp -e 1000 -c 0 -i 35 -a 0 -x {9.0 7.0 20 ------- null}
r -t 2.623808 -s 9 -d 0 -p tcp -e 1000 -c 0 -i 36 -a 0 -x {9.0 7.0 21 ------- null}
h -t 2.623808 -s 0 -d 8 -p tcp -e 1000 -c 0 -i 36 -a 0 -x {9.0 7.0 21 ------- null}
r -t 2.631808 -s 9 -d 0 -p tcp -e 1000 -c 0 -i 37 -a 0 -x {9.0 7.0 22 ------- null}
h -t 2.631808 -s 0 -d 8 -p tcp -e 1000 -c 0 -i 37 -a 0 -x {9.0 7.0 22 ------- null}
r -t 2.639808 -s 9 -d 0 -p tcp -e 1000 -c 0 -i 38 -a 0 -x {9.0 7.0 23 ------- null}
h -t 2.639808 -s 0 -d 8 -p tcp -e 1000 -c 0 -i 38 -a 0 -x {9.0 7.0 23 ------- null}
r -t 2.647808 -s 9 -d 0 -p tcp -e 1000 -c 0 -i 39 -a 0 -x {9.0 7.0 24 ------- null}
h -t 2.647808 -s 0 -d 8 -p tcp -e 1000 -c 0 -i 39 -a 0 -x {9.0 7.0 24 ------- null}
r -t 2.655808 -s 9 -d 0 -p tcp -e 1000 -c 0 -i 40 -a 0 -x {9.0 7.0 25 ------- null}
h -t 2.655808 -s 0 -d 8 -p tcp -e 1000 -c 0 -i 40 -a 0 -x {9.0 7.0 25 ------- null}
r -t 2.663808 -s 9 -d 0 -p tcp -e 1000 -c 0 -i 41 -a 0 -x {9.0 7.0 26 ------- null}
h -t 2.663808 -s 0 -d 8 -p tcp -e 1000 -c 0 -i 41 -a 0 -x {9.0 7.0 26 ------- null}
r -t 2.671808 -s 9 -d 0 -p tcp -e 1000 -c 0 -i 42 -a 0 -x {9.0 7.0 27 ------- null}
h -t 2.671808 -s 0 -d 8 -p tcp -e 1000 -c 0 -i 42 -a 0 -x {9.0 7.0 27 ------- null}
+ -t 2.675808 -s 0 -d 8 -p tcp -e 1000 -c 0 -i 30 -a 0 -x {9.0 7.0 15 ------- null}
- -t 2.675808 -s 0 -d 8 -p tcp -e 1000 -c 0 -i 30 -a 0 -x {9.0 7.0 15 ------- null}
h -t 2.675808 -s 0 -d 8 -p tcp -e 1000 -c 0 -i 30 -a 0 -x {9.0 7.0 -1 ------- null}
r -t 2.679808 -s 9 -d 0 -p tcp -e 1000 -c 0 -i 43 -a 0 -x {9.0 7.0 28 ------- null}