W -t * -x 670 -y 670
n -t * -s 0 -x 422.71670773848899 -y 589.70733576587497 -z 20 -v circle -c black
n -t * -s 1 -x 571.19274018632495 -y 276.38481828619501 -z 20 -v circle -c black
n -t * -s 2 -x 89.641181272211995 -y 439.333721576041 -z 20 -v circle -c black
n -t * -s 3 -x 481.85891825577198 -y 312.839552218736 -z 20 -v circle -c black
n -t * -s 4 -x 404.354417812321 -y 174.700530392536 -z 20 -v circle -c black
V -t * -v 1.0a5 -a 0
A -t * -n 1 -p 0 -o 0xffffffff -c 31 -a 1
A -t * -h 1 -m 2147483647 -s 0
v -t 0 -e take_snapshot
v -t 0.1 -e take_snapshot
v -t 0.150000 -e take_snapshot
n -t 0.170000 -s 0 -x 422.716708 -y 589.707336 -U -4.046865 -V -1.516404 -T 42.230770
n -t 0.170000 -s 1 -x 571.192740 -y 276.384818 -U -7.879661 -V -4.232723 -T 39.690258
v -t 0.190000 -e take_snapshot
n -t 0.250000 -s 2 -x 89.641181 -y 439.333722 -U -0.100553 -V 0.535017 -T 175.571385
n -t 0.250000 -s 3 -x 481.858918 -y 312.839552 -U 3.308171 -V 3.358763 -T 46.203506
v -t 0.260000 -e take_snapshot
n -t 0.300000 -s 4 -x 404.354418 -y 174.700530 -U -0.249763 -V 1.064495 -T 433.387909
v -t 0.32 -e take_snapshot
v -t 0.4 -e terminating_nam
