V -t * -v 1.0a5 -a 0
A -t * -n 1 -p 0 -o 0xffffffff -c 31 -a 1
A -t * -h 1 -m 2147483647 -s 0
c -t * -i 0 -n black
c -t * -i 1 -n red
n -t * -a 4 -s 4 -S UP -v circle -c black -i black
n -t * -a 0 -s 0 -S UP -v circle -c black -i black
n -t * -a 5 -s 5 -S UP -v circle -c black -i black
n -t * -a 1 -s 1 -S UP -v circle -c black -i black
n -t * -a 6 -s 6 -S UP -v circle -c black -i black
n -t * -a 2 -s 2 -S UP -v circle -c black -i black
n -t * -a 7 -s 7 -S UP -v circle -c black -i black
n -t * -a 3 -s 3 -S UP -v circle -c black -i black
l -t * -s 0 -d 3 -S UP -r 1000000 -D 0.050000000000000003 -c black -O right-down
l -t * -s 1 -d 3 -S UP -r 500000 -D 0.050000000000000003 -c black -O right
l -t * -s 2 -d 3 -S UP -r 500000 -D 0.050000000000000003 -c black -O right-up
l -t * -s 3 -d 4 -S UP -r 500000 -D 0.10000000000000001 -c black -O right
l -t * -s 4 -d 5 -S UP -r 1000000 -D 0.050000000000000003 -c black -O right-up
l -t * -s 4 -d 6 -S UP -r 500000 -D 0.050000000000000003 -c black -O right
l -t * -s 4 -d 7 -S UP -r 500000 -D 0.050000000000000003 -c black -O right-down
q -t * -s 3 -d 4 -a 0.5
q -t * -s 4 -d 3 -a 0.5
n -t 0 -s 0 -S DLABEL -l "SLIDING" -L ""
n -t 0 -s 5 -S DLABEL -l "SLIDING" -L ""
n -t 0 -s 1 -S DLABEL -l "CBR-1" -L ""
n -t 0 -s 2 -S DLABEL -l "CBR-2" -L ""
n -t 0 -s 6 -S DLABEL -l "CBR-1" -L ""
n -t 0 -s 7 -S DLABEL -l "CBR-2" -L ""
v -t 0 -e take_snapshot
+ -t 0.05 -s 1 -d 3 -p cbr -e 500 -c 1 -i 0 -a 1 -x {1.0 6.0 0 ------- null}
- -t 0.05 -s 1 -d 3 -p cbr -e 500 -c 1 -i 0 -a 1 -x {1.0 6.0 0 ------- null}
h -t 0.05 -s 1 -d 3 -p cbr -e 500 -c 1 -i 0 -a 1 -x {1.0 6.0 -1 ------- null}
v -t 0.050000000000000003 -e sim_annotation 0.050000000000000003 1 CBR-1 starts
+ -t 0.07 -s 1 -d 3 -p cbr -e 500 -c 1 -i 1 -a 1 -x {1.0 6.0 1 ------- null}
- -t 0.07 -s 1 -d 3 -p cbr -e 500 -c 1 -i 1 -a 1 -x {1.0 6.0 1 ------- null}
h -t 0.07 -s 1 -d 3 -p cbr -e 500 -c 1 -i 1 -a 1 -x {1.0 6.0 -1 ------- null}
+ -t 0.09 -s 1 -d 3 -p cbr -e 500 -c 1 -i 2 -a 1 -x {1.0 6.0 2 ------- null}
- -t 0.09 -s 1 -d 3 -p cbr -e 500 -c 1 -i 2 -a 1 -x {1.0 6.0 2 ------- null}
h -t 0.09 -s 1 -d 3 -p cbr -e 500 -c 1 -i 2 -a 1 -x {1.0 6.0 -1 ------- null}
+ -t 0.1 -s 2 -d 3 -p cbr -e 1000 -c 1 -i 3 -a 1 -x {2.0 7.0 0 ------- null}
- -t 0.1 -s 2 -d 3 -p cbr -e 1000 -c 1 -i 3 -a 1 -x {2.0 7.0 0 ------- null}
h -t 0.1 -s 2 -d 3 -p cbr -e 1000 -c 1 -i 3 -a 1 -x {2.0 7.0 -1 ------- null}
v -t 0.10000000000000001 -e sim_annotation 0.10000000000000001 2 CBR-2 starts
r -t 0.108 -s 1 -d 3 -p cbr -e 500 -c 1 -i 0 -a 1 -x {1.0 6.0 0 ------- null}
+ -t 0.108 -s 3 -d 4 -p cbr -e 500 -c 1 -i 0 -a 1 -x {1.0 6.0 0 ------- null}
- -t 0.108 -s 3 -d 4 -p cbr -e 500 -c 1 -i 0 -a 1 -x {1.0 6.0 0 ------- null}
h -t 0.108 -s 3 -d 4 -p cbr -e 500 -c 1 -i 0 -a 1 -x {1.0 6.0 -1 ------- null}
+ -t 0.11 -s 1 -d 3 -p cbr -e 500 -c 1 -i 4 -a 1 -x {1.0 6.0 3 ------- null}
- -t 0.11 -s 1 -d 3 -p cbr -e 500 -c 1 -i 4 -a 1 -x {1.0 6.0 3 ------- null}
h -t 0.11 -s 1 -d 3 -p cbr -e 500 -c 1 -i 4 -a 1 -x {1.0 6.0 -1 ------- null}
r -t 0.128 -s 1 -d 3 -p cbr -e 500 -c 1 -i 1 -a 1 -x {1.0 6.0 1 ------- null}
+ -t 0.128 -s 3 -d 4 -p cbr -e 500 -c 1 -i 1 -a 1 -x {1.0 6.0 1 ------- null}
- -t 0.128 -s 3 -d 4 -p cbr -e 500 -c 1 -i 1 -a 1 -x {1.0 6.0 1 ------- null}
h -t 0.128 -s 3 -d 4 -p cbr -e 500 -c 1 -i 1 -a 1 -x {1.0 6.0 -1 ------- null}
+ -t 0.13 -s 2 -d 3 -p cbr -e 1000 -c 1 -i 5 -a 1 -x {2.0 7.0 1 ------- null}
- -t 0.13 -s 2 -d 3 -p cbr -e 1000 -c 1 -i 5 -a 1 -x {2.0 7.0 1 ------- null}
h -t 0.13 -s 2 -d 3 -p cbr -e 1000 -c 1 -i 5 -a 1 -x {2.0 7.0 -1 ------- null}
+ -t 0.13 -s 1 -d 3 -p cbr -e 500 -c 1 -i 6 -a 1 -x {1.0 6.0 4 ------- null}
- -t 0.13 -s 1 -d 3 -p cbr -e 500 -c 1 -i 6 -a 1 -x {1.0 6.0 4 ------- null}
h -t 0.13 -s 1 -d 3 -p cbr -e 500 -c 1 -i 6 -a 1 -x {1.0 6.0 -1 ------- null}
r -t 0.148 -s 1 -d 3 -p cbr -e 500 -c 1 -i 2 -a 1 -x {1.0 6.0 2 ------- null}
+ -t 0.148 -s 3 -d 4 -p cbr -e 500 -c 1 -i 2 -a 1 -x {1.0 6.0 2 ------- null}
- -t 0.148 -s 3 -d 4 -p cbr -e 500 -c 1 -i 2 -a 1 -x {1.0 6.0 2 ------- null}
h -t 0.148 -s 3 -d 4 -p cbr -e 500 -c 1 -i 2 -a 1 -x {1.0 6.0 -1 ------- null}
+ -t 0.15 -s 1 -d 3 -p cbr -e 500 -c 1 -i 7 -a 1 -x {1.0 6.0 5 ------- null}
- -t 0.15 -s 1 -d 3 -p cbr -e 500 -c 1 -i 7 -a 1 -x {1.0 6.0 5 ------- null}
h -t 0.15 -s 1 -d 3 -p cbr -e 500 -c 1 -i 7 -a 1 -x {1.0 6.0 -1 ------- null}
+ -t 0.16 -s 2 -d 3 -p cbr -e 1000 -c 1 -i 8 -a 1 -x {2.0 7.0 2 ------- null}
- -t 0.16 -s 2 -d 3 -p cbr -e 1000 -c 1 -i 8 -a 1 -x {2.0 7.0 2 ------- null}
h -t 0.16 -s 2 -d 3 -p cbr -e 1000 -c 1 -i 8 -a 1 -x {2.0 7.0 -1 ------- null}
r -t 0.166 -s 2 -d 3 -p cbr -e 1000 -c 1 -i 3 -a 1 -x {2.0 7.0 0 ------- null}
+ -t 0.166 -s 3 -d 4 -p cbr -e 1000 -c 1 -i 3 -a 1 -x {2.0 7.0 0 ------- null}
- -t 0.166 -s 3 -d 4 -p cbr -e 1000 -c 1 -i 3 -a 1 -x {2.0 7.0 0 ------- null}
h -t 0.166 -s 3 -d 4 -p cbr -e 1000 -c 1 -i 3 -a 1 -x {2.0 7.0 -1 ------- null}
r -t 0.168 -s 1 -d 3 -p cbr -e 500 -c 1 -i 4 -a 1 -x {1.0 6.0 3 ------- null}
+ -t 0.168 -s 3 -d 4 -p cbr -e 500 -c 1 -i 4 -a 1 -x {1.0 6.0 3 ------- null}
+ -t 0.17 -s 1 -d 3 -p cbr -e 500 -c 1 -i 9 -a 1 -x {1.0 6.0 6 ------- null}
- -t 0.17 -s 1 -d 3 -p cbr -e 500 -c 1 -i 9 -a 1 -x {1.0 6.0 6 ------- null}
h -t 0.17 -s 1 -d 3 -p cbr -e 500 -c 1 -i 9 -a 1 -x {1.0 6.0 -1 ------- null}
- -t 0.182 -s 3 -d 4 -p cbr -e 500 -c 1 -i 4 -a 1 -x {1.0 6.0 3 ------- null}
h -t 0.182 -s 3 -d 4 -p cbr -e 500 -c 1 -i 4 -a 1 -x {1.0 6.0 -1 ------- null}
r -t 0.188 -s 1 -d 3 -p cbr -e 500 -c 1 -i 6 -a 1 -x {1.0 6.0 4 ------- null}
+ -t 0.188 -s 3 -d 4 -p cbr -e 500 -c 1 -i 6 -a 1 -x {1.0 6.0 4 ------- null}
+ -t 0.19 -s 1 -d 3 -p cbr -e 500 -c 1 -i 10 -a 1 -x {1.0 6.0 7 ------- null}
- -t 0.19 -s 1 -d 3 -p cbr -e 500 -c 1 -i 10 -a 1 -x {1.0 6.0 7 ------- null}
h -t 0.19 -s 1 -d 3 -p cbr -e 500 -c 1 -i 10 -a 1 -x {1.0 6.0 -1 ------- null}
+ -t 0.19 -s 2 -d 3 -p cbr -e 1000 -c 1 -i 11 -a 1 -x {2.0 7.0 3 ------- null}
- -t 0.19 -s 2 -d 3 -p cbr -e 1000 -c 1 -i 11 -a 1 -x {2.0 7.0 3 ------- null}
h -t 0.19 -s 2 -d 3 -p cbr -e 1000 -c 1 -i 11 -a 1 -x {2.0 7.0 -1 ------- null}
- -t 0.19 -s 3 -d 4 -p cbr -e 500 -c 1 -i 6 -a 1 -x {1.0 6.0 4 ------- null}
h -t 0.19 -s 3 -d 4 -p cbr -e 500 -c 1 -i 6 -a 1 -x {1.0 6.0 -1 ------- null}
r -t 0.196 -s 2 -d 3 -p cbr -e 1000 -c 1 -i 5 -a 1 -x {2.0 7.0 1 ------- null}
+ -t 0.196 -s 3 -d 4 -p cbr -e 1000 -c 1 -i 5 -a 1 -x {2.0 7.0 1 ------- null}
- -t 0.198 -s 3 -d 4 -p cbr -e 1000 -c 1 -i 5 -a 1 -x {2.0 7.0 1 ------- null}
h -t 0.198 -s 3 -d 4 -p cbr -e 1000 -c 1 -i 5 -a 1 -x {2.0 7.0 -1 ------- null}
r -t 0.208 -s 1 -d 3 -p cbr -e 500 -c 1 -i 7 -a 1 -x {1.0 6.0 5 ------- null}
+ -t 0.208 -s 3 -d 4 -p cbr -e 500 -c 1 -i 7 -a 1 -x {1.0 6.0 5 ------- null}
+ -t 0.21 -s 1 -d 3 -p cbr -e 500 -c 1 -i 12 -a 1 -x {1.0 6.0 8 ------- null}
- -t 0.21 -s 1 -d 3 -p cbr -e 500 -c 1 -i 12 -a 1 -x {1.0 6.0 8 ------- null}
h -t 0.21 -s 1 -d 3 -p cbr -e 500 -c 1 -i 12 -a 1 -x {1.0 6.0 -1 ------- null}
- -t 0.214 -s 3 -d 4 -p cbr -e 500 -c 1 -i 7 -a 1 -x {1.0 6.0 5 ------- null}
h -t 0.214 -s 3 -d 4 -p cbr -e 500 -c 1 -i 7 -a 1 -x {1.0 6.0 -1 ------- null}
r -t 0.216 -s 3 -d 4 -p cbr -e 500 -c 1 -i 0 -a 1 -x {1.0 6.0 0 ------- null}
+ -t 0.216 -s 4 -d 6 -p cbr -e 500 -c 1 -i 0 -a 1 -x {1.0 6.0 0 ------- null}
- -t 0.216 -s 4 -d 6 -p cbr -e 500 -c 1 -i 0 -a 1 -x {1.0 6.0 0 ------- null}
h -t 0.216 -s 4 -d 6 -p cbr -e 500 -c 1 -i 0 -a 1 -x {1.0 6.0 -1 ------- null}
+ -t 0.22 -s 2 -d 3 -p cbr -e 1000 -c 1 -i 13 -a 1 -x {2.0 7.0 4 ------- null}
- -t 0.22 -s 2 -d 3 -p cbr -e 1000 -c 1 -i 13 -a 1 -x {2.0 7.0 4 ------- null}
h -t 0.22 -s 2 -d 3 -p cbr -e 1000 -c 1 -i 13 -a 1 -x {2.0 7.0 -1 ------- null}
r -t 0.226 -s 2 -d 3 -p cbr -e 1000 -c 1 -i 8 -a 1 -x {2.0 7.0 2 ------- null}
+ -t 0.226 -s 3 -d 4 -p cbr -e 1000 -c 1 -i 8 -a 1 -x {2.0 7.0 2 ------- null}
- -t 0.226 -s 3 -d 4 -p cbr -e 1000 -c 1 -i 8 -a 1 -x {2.0 7.0 2 ------- null}
h -t 0.226 -s 3 -d 4 -p cbr -e 1000 -c 1 -i 8 -a 1 -x {2.0 7.0 -1 ------- null}
r -t 0.228 -s 1 -d 3 -p cbr -e 500 -c 1 -i 9 -a 1 -x {1.0 6.0 6 ------- null}
+ -t 0.228 -s 3 -d 4 -p cbr -e 500 -c 1 -i 9 -a 1 -x {1.0 6.0 6 ------- null}
+ -t 0.23 -s 1 -d 3 -p cbr -e 500 -c 1 -i 14 -a 1 -x {1.0 6.0 9 ------- null}
- -t 0.23 -s 1 -d 3 -p cbr -e 500 -c 1 -i 14 -a 1 -x {1.0 6.0 9 ------- null}
h -t 0.23 -s 1 -d 3 -p cbr -e 500 -c 1 -i 14 -a 1 -x {1.0 6.0 -1 ------- null}
r -t 0.236 -s 3 -d 4 -p cbr -e 500 -c 1 -i 1 -a 1 -x {1.0 6.0 1 ------- null}
+ -t 0.236 -s 4 -d 6 -p cbr -e 500 -c 1 -i 1 -a 1 -x {1.0 6.0 1 ------- null}
- -t 0.236 -s 4 -d 6 -p cbr -e 500 -c 1 -i 1 -a 1 -x {1.0 6.0 1 ------- null}
h -t 0.236 -s 4 -d 6 -p cbr -e 500 -c 1 -i 1 -a 1 -x {1.0 6.0 -1 ------- null}
- -t 0.242 -s 3 -d 4 -p cbr -e 500 -c 1 -i 9 -a 1 -x {1.0 6.0 6 ------- null}
h -t 0.242 -s 3 -d 4 -p cbr -e 500 -c 1 -i 9 -a 1 -x {1.0 6.0 -1 ------- null}
r -t 0.248 -s 1 -d 3 -p cbr -e 500 -c 1 -i 10 -a 1 -x {1.0 6.0 7 ------- null}
+ -t 0.248 -s 3 -d 4 -p cbr -e 500 -c 1 -i 10 -a 1 -x {1.0 6.0 7 ------- null}
+ -t 0.25 -s 1 -d 3 -p cbr -e 500 -c 1 -i 15 -a 1 -x {1.0 6.0 10 ------- null}
- -t 0.25 -s 1 -d 3 -p cbr -e 500 -c 1 -i 15 -a 1 -x {1.0 6.0 10 ------- null}
h -t 0.25 -s 1 -d 3 -p cbr -e 500 -c 1 -i 15 -a 1 -x {1.0 6.0 -1 ------- null}
+ -t 0.25 -s 2 -d 3 -p cbr -e 1000 -c 1 -i 16 -a 1 -x {2.0 7.0 5 ------- null}
- -t 0.25 -s 2 -d 3 -p cbr -e 1000 -c 1 -i 16 -a 1 -x {2.0 7.0 5 ------- null}
h -t 0.25 -s 2 -d 3 -p cbr -e 1000 -c 1 -i 16 -a 1 -x {2.0 7.0 -1 ------- null}
- -t 0.25 -s 3 -d 4 -p cbr -e 500 -c 1 -i 10 -a 1 -x {1.0 6.0 7 ------- null}
h -t 0.25 -s 3 -d 4 -p cbr -e 500 -c 1 -i 10 -a 1 -x {1.0 6.0 -1 ------- null}
r -t 0.256 -s 3 -d 4 -p cbr -e 500 -c 1 -i 2 -a 1 -x {1.0 6.0 2 ------- null}
+ -t 0.256 -s 4 -d 6 -p cbr -e 500 -c 1 -i 2 -a 1 -x {1.0 6.0 2 ------- null}
- -t 0.256 -s 4 -d 6 -p cbr -e 500 -c 1 -i 2 -a 1 -x {1.0 6.0 2 ------- null}
h -t 0.256 -s 4 -d 6 -p cbr -e 500 -c 1 -i 2 -a 1 -x {1.0 6.0 -1 ------- null}
r -t 0.256 -s 2 -d 3 -p cbr -e 1000 -c 1 -i 11 -a 1 -x {2.0 7.0 3 ------- null}
+ -t 0.256 -s 3 -d 4 -p cbr -e 1000 -c 1 -i 11 -a 1 -x {2.0 7.0 3 ------- null}
- -t 0.258 -s 3 -d 4 -p cbr -e 1000 -c 1 -i 11 -a 1 -x {2.0 7.0 3 ------- null}
h -t 0.258 -s 3 -d 4 -p cbr -e 1000 -c 1 -i 11 -a 1 -x {2.0 7.0 -1 ------- null}
r -t 0.268 -s 1 -d 3 -p cbr -e 500 -c 1 -i 12 -a 1 -x {1.0 6.0 8 ------- null}
+ -t 0.268 -s 3 -d 4 -p cbr -e 500 -c 1 -i 12 -a 1 -x {1.0 6.0 8 ------- null}
+ -t 0.27 -s 1 -d 3 -p cbr -e 500 -c 1 -i 17 -a 1 -x {1.0 6.0 11 ------- null}
- -t 0.27 -s 1 -d 3 -p cbr -e 500 -c 1 -i 17 -a 1 -x {1.0 6.0 11 ------- null}
h -t 0.27 -s 1 -d 3 -p cbr -e 500 -c 1 -i 17 -a 1 -x {1.0 6.0 -1 ------- null}
r -t 0.274 -s 4 -d 6 -p cbr -e 500 -c 1 -i 0 -a 1 -x {1.0 6.0 0 ------- null}
- -t 0.274 -s 3 -d 4 -p cbr -e 500 -c 1 -i 12 -a 1 -x {1.0 6.0 8 ------- null}
h -t 0.274 -s 3 -d 4 -p cbr -e 500 -c 1 -i 12 -a 1 -x {1.0 6.0 -1 ------- null}
+ -t 0.28 -s 2 -d 3 -p cbr -e 1000 -c 1 -i 18 -a 1 -x {2.0 7.0 6 ------- null}
- -t 0.28 -s 2 -d 3 -p cbr -e 1000 -c 1 -i 18 -a 1 -x {2.0 7.0 6 ------- null}
h -t 0.28 -s 2 -d 3 -p cbr -e 1000 -c 1 -i 18 -a 1 -x {2.0 7.0 -1 ------- null}
r -t 0.282 -s 3 -d 4 -p cbr -e 1000 -c 1 -i 3 -a 1 -x {2.0 7.0 0 ------- null}
+ -t 0.282 -s 4 -d 7 -p cbr -e 1000 -c 1 -i 3 -a 1 -x {2.0 7.0 0 ------- null}
- -t 0.282 -s 4 -d 7 -p cbr -e 1000 -c 1 -i 3 -a 1 -x {2.0 7.0 0 ------- null}
h -t 0.282 -s 4 -d 7 -p cbr -e 1000 -c 1 -i 3 -a 1 -x {2.0 7.0 -1 ------- null}
r -t 0.286 -s 2 -d 3 -p cbr -e 1000 -c 1 -i 13 -a 1 -x {2.0 7.0 4 ------- null}
+ -t 0.286 -s 3 -d 4 -p cbr -e 1000 -c 1 -i 13 -a 1 -x {2.0 7.0 4 ------- null}
- -t 0.286 -s 3 -d 4 -p cbr -e 1000 -c 1 -i 13 -a 1 -x {2.0 7.0 4 ------- null}
h -t 0.286 -s 3 -d 4 -p cbr -e 1000 -c 1 -i 13 -a 1 -x {2.0 7.0 -1 ------- null}
r -t 0.288 -s 1 -d 3 -p cbr -e 500 -c 1 -i 14 -a 1 -x {1.0 6.0 9 ------- null}
+ -t 0.288 -s 3 -d 4 -p cbr -e 500 -c 1 -i 14 -a 1 -x {1.0 6.0 9 ------- null}
+ -t 0.29 -s 1 -d 3 -p cbr -e 500 -c 1 -i 19 -a 1 -x {1.0 6.0 12 ------- null}
- -t 0.29 -s 1 -d 3 -p cbr -e 500 -c 1 -i 19 -a 1 -x {1.0 6.0 12 ------- null}
h -t 0.29 -s 1 -d 3 -p cbr -e 500 -c 1 -i 19 -a 1 -x {1.0 6.0 -1 ------- null}
r -t 0.29 -s 3 -d 4 -p cbr -e 500 -c 1 -i 4 -a 1 -x {1.0 6.0 3 ------- null}
+ -t 0.29 -s 4 -d 6 -p cbr -e 500 -c 1 -i 4 -a 1 -x {1.0 6.0 3 ------- null}
- -t 0.29 -s 4 -d 6 -p cbr -e 500 -c 1 -i 4 -a 1 -x {1.0 6.0 3 ------- null}
h -t 0.29 -s 4 -d 6 -p cbr -e 500 -c 1 -i 4 -a 1 -x {1.0 6.0 -1 ------- null}
r -t 0.294 -s 4 -d 6 -p cbr -e 500 -c 1 -i 1 -a 1 -x {1.0 6.0 1 ------- null}
r -t 0.298 -s 3 -d 4 -p cbr -e 500 -c 1 -i 6 -a 1 -x {1.0 6.0 4 ------- null}
+ -t 0.298 -s 4 -d 6 -p cbr -e 500 -c 1 -i 6 -a 1 -x {1.0 6.0 4 ------- null}
- -t 0.298 -s 4 -d 6 -p cbr -e 500 -c 1 -i 6 -a 1 -x {1.0 6.0 4 ------- null}
h -t 0.298 -s 4 -d 6 -p cbr -e 500 -c 1 -i 6 -a 1 -x {1.0 6.0 -1 ------- null}
- -t 0.302 -s 3 -d 4 -p cbr -e 500 -c 1 -i 14 -a 1 -x {1.0 6.0 9 ------- null}
h -t 0.302 -s 3 -d 4 -p cbr -e 500 -c 1 -i 14 -a 1 -x {1.0 6.0 -1 ------- null}
r -t 0.308 -s 1 -d 3 -p cbr -e 500 -c 1 -i 15 -a 1 -x {1.0 6.0 10 ------- null}
+ -t 0.308 -s 3 -d 4 -p cbr -e 500 -c 1 -i 15 -a 1 -x {1.0 6.0 10 ------- null}
+ -t 0.31 -s 1 -d 3 -p cbr -e 500 -c 1 -i 20 -a 1 -x {1.0 6.0 13 ------- null}
- -t 0.31 -s 1 -d 3 -p cbr -e 500 -c 1 -i 20 -a 1 -x {1.0 6.0 13 ------- null}
h -t 0.31 -s 1 -d 3 -p cbr -e 500 -c 1 -i 20 -a 1 -x {1.0 6.0 -1 ------- null}
+ -t 0.31 -s 2 -d 3 -p cbr -e 1000 -c 1 -i 21 -a 1 -x {2.0 7.0 7 ------- null}
- -t 0.31 -s 2 -d 3 -p cbr -e 1000 -c 1 -i 21 -a 1 -x {2.0 7.0 7 ------- null}
h -t 0.31 -s 2 -d 3 -p cbr -e 1000 -c 1 -i 21 -a 1 -x {2.0 7.0 -1 ------- null}
- -t 0.31 -s 3 -d 4 -p cbr -e 500 -c 1 -i 15 -a 1 -x {1.0 6.0 10 ------- null}
h -t 0.31 -s 3 -d 4 -p cbr -e 500 -c 1 -i 15 -a 1 -x {1.0 6.0 -1 ------- null}
r -t 0.314 -s 3 -d 4 -p cbr -e 1000 -c 1 -i 5 -a 1 -x {2.0 7.0 1 ------- null}
+ -t 0.314 -s 4 -d 7 -p cbr -e 1000 -c 1 -i 5 -a 1 -x {2.0 7.0 1 ------- null}
- -t 0.314 -s 4 -d 7 -p cbr -e 1000 -c 1 -i 5 -a 1 -x {2.0 7.0 1 ------- null}
h -t 0.314 -s 4 -d 7 -p cbr -e 1000 -c 1 -i 5 -a 1 -x {2.0 7.0 -1 ------- null}
r -t 0.314 -s 4 -d 6 -p cbr -e 500 -c 1 -i 2 -a 1 -x {1.0 6.0 2 ------- null}
r -t 0.316 -s 2 -d 3 -p cbr -e 1000 -c 1 -i 16 -a 1 -x {2.0 7.0 5 ------- null}
+ -t 0.316 -s 3 -d 4 -p cbr -e 1000 -c 1 -i 16 -a 1 -x {2.0 7.0 5 ------- null}
- -t 0.318 -s 3 -d 4 -p cbr -e 1000 -c 1 -i 16 -a 1 -x {2.0 7.0 5 ------- null}
h -t 0.318 -s 3 -d 4 -p cbr -e 1000 -c 1 -i 16 -a 1 -x {2.0 7.0 -1 ------- null}
r -t 0.322 -s 3 -d 4 -p cbr -e 500 -c 1 -i 7 -a 1 -x {1.0 6.0 5 ------- null}
+ -t 0.322 -s 4 -d 6 -p cbr -e 500 -c 1 -i 7 -a 1 -x {1.0 6.0 5 ------- null}
- -t 0.322 -s 4 -d 6 -p cbr -e 500 -c 1 -i 7 -a 1 -x {1.0 6.0 5 ------- null}
h -t 0.322 -s 4 -d 6 -p cbr -e 500 -c 1 -i 7 -a 1 -x {1.0 6.0 -1 ------- null}
r -t 0.328 -s 1 -d 3 -p cbr -e 500 -c 1 -i 17 -a 1 -x {1.0 6.0 11 ------- null}
+ -t 0.328 -s 3 -d 4 -p cbr -e 500 -c 1 -i 17 -a 1 -x {1.0 6.0 11 ------- null}
+ -t 0.33 -s 1 -d 3 -p cbr -e 500 -c 1 -i 22 -a 1 -x {1.0 6.0 14 ------- null}
- -t 0.33 -s 1 -d 3 -p cbr -e 500 -c 1 -i 22 -a 1 -x {1.0 6.0 14 ------- null}
h -t 0.33 -s 1 -d 3 -p cbr -e 500 -c 1 -i 22 -a 1 -x {1.0 6.0 -1 ------- null}
- -t 0.334 -s 3 -d 4 -p cbr -e 500 -c 1 -i 17 -a 1 -x {1.0 6.0 11 ------- null}
h -t 0.334 -s 3 -d 4 -p cbr -e 500 -c 1 -i 17 -a 1 -x {1.0 6.0 -1 ------- null}
+ -t 0.34 -s 2 -d 3 -p cbr -e 1000 -c 1 -i 23 -a 1 -x {2.0 7.0 8 ------- null}
- -t 0.34 -s 2 -d 3 -p cbr -e 1000 -c 1 -i 23 -a 1 -x {2.0 7.0 8 ------- null}
h -t 0.34 -s 2 -d 3 -p cbr -e 1000 -c 1 -i 23 -a 1 -x {2.0 7.0 -1 ------- null}
r -t 0.342 -s 3 -d 4 -p cbr -e 1000 -c 1 -i 8 -a 1 -x {2.0 7.0 2 ------- null}
+ -t 0.342 -s 4 -d 7 -p cbr -e 1000 -c 1 -i 8 -a 1 -x {2.0 7.0 2 ------- null}
- -t 0.342 -s 4 -d 7 -p cbr -e 1000 -c 1 -i 8 -a 1 -x {2.0 7.0 2 ------- null}
h -t 0.342 -s 4 -d 7 -p cbr -e 1000 -c 1 -i 8 -a 1 -x {2.0 7.0 -1 ------- null}
r -t 0.346 -s 2 -d 3 -p cbr -e 1000 -c 1 -i 18 -a 1 -x {2.0 7.0 6 ------- null}
+ -t 0.346 -s 3 -d 4 -p cbr -e 1000 -c 1 -i 18 -a 1 -x {2.0 7.0 6 ------- null}
- -t 0.346 -s 3 -d 4 -p cbr -e 1000 -c 1 -i 18 -a 1 -x {2.0 7.0 6 ------- null}
h -t 0.346 -s 3 -d 4 -p cbr -e 1000 -c 1 -i 18 -a 1 -x {2.0 7.0 -1 ------- null}
r -t 0.348 -s 1 -d 3 -p cbr -e 500 -c 1 -i 19 -a 1 -x {1.0 6.0 12 ------- null}
+ -t 0.348 -s 3 -d 4 -p cbr -e 500 -c 1 -i 19 -a 1 -x {1.0 6.0 12 ------- null}
r -t 0.348 -s 4 -d 7 -p cbr -e 1000 -c 1 -i 3 -a 1 -x {2.0 7.0 0 ------- null}
r -t 0.348 -s 4 -d 6 -p cbr -e 500 -c 1 -i 4 -a 1 -x {1.0 6.0 3 ------- null}
r -t 0.35 -s 3 -d 4 -p cbr -e 500 -c 1 -i 9 -a 1 -x {1.0 6.0 6 ------- null}
+ -t 0.35 -s 4 -d 6 -p cbr -e 500 -c 1 -i 9 -a 1 -x {1.0 6.0 6 ------- null}
- -t 0.35 -s 4 -d 6 -p cbr -e 500 -c 1 -i 9 -a 1 -x {1.0 6.0 6 ------- null}
h -t 0.35 -s 4 -d 6 -p cbr -e 500 -c 1 -i 9 -a 1 -x {1.0 6.0 -1 ------- null}
+ -t 0.35 -s 1 -d 3 -p cbr -e 500 -c 1 -i 24 -a 1 -x {1.0 6.0 15 ------- null}
- -t 0.35 -s 1 -d 3 -p cbr -e 500 -c 1 -i 24 -a 1 -x {1.0 6.0 15 ------- null}
h -t 0.35 -s 1 -d 3 -p cbr -e 500 -c 1 -i 24 -a 1 -x {1.0 6.0 -1 ------- null}
r -t 0.356 -s 4 -d 6 -p cbr -e 500 -c 1 -i 6 -a 1 -x {1.0 6.0 4 ------- null}
r -t 0.358 -s 3 -d 4 -p cbr -e 500 -c 1 -i 10 -a 1 -x {1.0 6.0 7 ------- null}
+ -t 0.358 -s 4 -d 6 -p cbr -e 500 -c 1 -i 10 -a 1 -x {1.0 6.0 7 ------- null}
- -t 0.358 -s 4 -d 6 -p cbr -e 500 -c 1 -i 10 -a 1 -x {1.0 6.0 7 ------- null}
h -t 0.358 -s 4 -d 6 -p cbr -e 500 -c 1 -i 10 -a 1 -x {1.0 6.0 -1 ------- null}
- -t 0.362 -s 3 -d 4 -p cbr -e 500 -c 1 -i 19 -a 1 -x {1.0 6.0 12 ------- null}
h -t 0.362 -s 3 -d 4 -p cbr -e 500 -c 1 -i 19 -a 1 -x {1.0 6.0 -1 ------- null}
r -t 0.368 -s 1 -d 3 -p cbr -e 500 -c 1 -i 20 -a 1 -x {1.0 6.0 13 ------- null}
+ -t 0.368 -s 3 -d 4 -p cbr -e 500 -c 1 -i 20 -a 1 -x {1.0 6.0 13 ------- null}
+ -t 0.37 -s 1 -d 3 -p cbr -e 500 -c 1 -i 25 -a 1 -x {1.0 6.0 16 ------- null}
- -t 0.37 -s 1 -d 3 -p cbr -e 500 -c 1 -i 25 -a 1 -x {1.0 6.0 16 ------- null}
h -t 0.37 -s 1 -d 3 -p cbr -e 500 -c 1 -i 25 -a 1 -x {1.0 6.0 -1 ------- null}
- -t 0.37 -s 3 -d 4 -p cbr -e 500 -c 1 -i 20 -a 1 -x {1.0 6.0 13 ------- null}
h -t 0.37 -s 3 -d 4 -p cbr -e 500 -c 1 -i 20 -a 1 -x {1.0 6.0 -1 ------- null}
+ -t 0.37 -s 2 -d 3 -p cbr -e 1000 -c 1 -i 26 -a 1 -x {2.0 7.0 9 ------- null}
- -t 0.37 -s 2 -d 3 -p cbr -e 1000 -c 1 -i 26 -a 1 -x {2.0 7.0 9 ------- null}
h -t 0.37 -s 2 -d 3 -p cbr -e 1000 -c 1 -i 26 -a 1 -x {2.0 7.0 -1 ------- null}
r -t 0.374 -s 3 -d 4 -p cbr -e 1000 -c 1 -i 11 -a 1 -x {2.0 7.0 3 ------- null}
+ -t 0.374 -s 4 -d 7 -p cbr -e 1000 -c 1 -i 11 -a 1 -x {2.0 7.0 3 ------- null}
- -t 0.374 -s 4 -d 7 -p cbr -e 1000 -c 1 -i 11 -a 1 -x {2.0 7.0 3 ------- null}
h -t 0.374 -s 4 -d 7 -p cbr -e 1000 -c 1 -i 11 -a 1 -x {2.0 7.0 -1 ------- null}
r -t 0.376 -s 2 -d 3 -p cbr -e 1000 -c 1 -i 21 -a 1 -x {2.0 7.0 7 ------- null}
+ -t 0.376 -s 3 -d 4 -p cbr -e 1000 -c 1 -i 21 -a 1 -x {2.0 7.0 7 ------- null}
- -t 0.378 -s 3 -d 4 -p cbr -e 1000 -c 1 -i 21 -a 1 -x {2.0 7.0 7 ------- null}
h -t 0.378 -s 3 -d 4 -p cbr -e 1000 -c 1 -i 21 -a 1 -x {2.0 7.0 -1 ------- null}
r -t 0.38 -s 4 -d 7 -p cbr -e 1000 -c 1 -i 5 -a 1 -x {2.0 7.0 1 ------- null}
r -t 0.38 -s 4 -d 6 -p cbr -e 500 -c 1 -i 7 -a 1 -x {1.0 6.0 5 ------- null}
r -t 0.382 -s 3 -d 4 -p cbr -e 500 -c 1 -i 12 -a 1 -x {1.0 6.0 8 ------- null}
+ -t 0.382 -s 4 -d 6 -p cbr -e 500 -c 1 -i 12 -a 1 -x {1.0 6.0 8 ------- null}
- -t 0.382 -s 4 -d 6 -p cbr -e 500 -c 1 -i 12 -a 1 -x {1.0 6.0 8 ------- null}
h -t 0.382 -s 4 -d 6 -p cbr -e 500 -c 1 -i 12 -a 1 -x {1.0 6.0 -1 ------- null}
r -t 0.388 -s 1 -d 3 -p cbr -e 500 -c 1 -i 22 -a 1 -x {1.0 6.0 14 ------- null}
+ -t 0.388 -s 3 -d 4 -p cbr -e 500 -c 1 -i 22 -a 1 -x {1.0 6.0 14 ------- null}
+ -t 0.39 -s 1 -d 3 -p cbr -e 500 -c 1 -i 27 -a 1 -x {1.0 6.0 17 ------- null}
- -t 0.39 -s 1 -d 3 -p cbr -e 500 -c 1 -i 27 -a 1 -x {1.0 6.0 17 ------- null}
h -t 0.39 -s 1 -d 3 -p cbr -e 500 -c 1 -i 27 -a 1 -x {1.0 6.0 -1 ------- null}
- -t 0.394 -s 3 -d 4 -p cbr -e 500 -c 1 -i 22 -a 1 -x {1.0 6.0 14 ------- null}
h -t 0.394 -s 3 -d 4 -p cbr -e 500 -c 1 -i 22 -a 1 -x {1.0 6.0 -1 ------- null}
+ -t 0.4 -s 2 -d 3 -p cbr -e 1000 -c 1 -i 28 -a 1 -x {2.0 7.0 10 ------- null}
- -t 0.4 -s 2 -d 3 -p cbr -e 1000 -c 1 -i 28 -a 1 -x {2.0 7.0 10 ------- null}
h -t 0.4 -s 2 -d 3 -p cbr -e 1000 -c 1 -i 28 -a 1 -x {2.0 7.0 -1 ------- null}
r -t 0.402 -s 3 -d 4 -p cbr -e 1000 -c 1 -i 13 -a 1 -x {2.0 7.0 4 ------- null}
+ -t 0.402 -s 4 -d 7 -p cbr -e 1000 -c 1 -i 13 -a 1 -x {2.0 7.0 4 ------- null}
- -t 0.402 -s 4 -d 7 -p cbr -e 1000 -c 1 -i 13 -a 1 -x {2.0 7.0 4 ------- null}
h -t 0.402 -s 4 -d 7 -p cbr -e 1000 -c 1 -i 13 -a 1 -x {2.0 7.0 -1 ------- null}
r -t 0.406 -s 2 -d 3 -p cbr -e 1000 -c 1 -i 23 -a 1 -x {2.0 7.0 8 ------- null}
+ -t 0.406 -s 3 -d 4 -p cbr -e 1000 -c 1 -i 23 -a 1 -x {2.0 7.0 8 ------- null}
- -t 0.406 -s 3 -d 4 -p cbr -e 1000 -c 1 -i 23 -a 1 -x {2.0 7.0 8 ------- null}
h -t 0.406 -s 3 -d 4 -p cbr -e 1000 -c 1 -i 23 -a 1 -x {2.0 7.0 -1 ------- null}
r -t 0.408 -s 4 -d 6 -p cbr -e 500 -c 1 -i 9 -a 1 -x {1.0 6.0 6 ------- null}
r -t 0.408 -s 4 -d 7 -p cbr -e 1000 -c 1 -i 8 -a 1 -x {2.0 7.0 2 ------- null}
r -t 0.408 -s 1 -d 3 -p cbr -e 500 -c 1 -i 24 -a 1 -x {1.0 6.0 15 ------- null}
+ -t 0.408 -s 3 -d 4 -p cbr -e 500 -c 1 -i 24 -a 1 -x {1.0 6.0 15 ------- null}
r -t 0.41 -s 3 -d 4 -p cbr -e 500 -c 1 -i 14 -a 1 -x {1.0 6.0 9 ------- null}
+ -t 0.41 -s 4 -d 6 -p cbr -e 500 -c 1 -i 14 -a 1 -x {1.0 6.0 9 ------- null}
- -t 0.41 -s 4 -d 6 -p cbr -e 500 -c 1 -i 14 -a 1 -x {1.0 6.0 9 ------- null}
h -t 0.41 -s 4 -d 6 -p cbr -e 500 -c 1 -i 14 -a 1 -x {1.0 6.0 -1 ------- null}
+ -t 0.41 -s 1 -d 3 -p cbr -e 500 -c 1 -i 29 -a 1 -x {1.0 6.0 18 ------- null}
- -t 0.41 -s 1 -d 3 -p cbr -e 500 -c 1 -i 29 -a 1 -x {1.0 6.0 18 ------- null}
h -t 0.41 -s 1 -d 3 -p cbr -e 500 -c 1 -i 29 -a 1 -x {1.0 6.0 -1 ------- null}
r -t 0.416 -s 4 -d 6 -p cbr -e 500 -c 1 -i 10 -a 1 -x {1.0 6.0 7 ------- null}
r -t 0.418 -s 3 -d 4 -p cbr -e 500 -c 1 -i 15 -a 1 -x {1.0 6.0 10 ------- null}
+ -t 0.418 -s 4 -d 6 -p cbr -e 500 -c 1 -i 15 -a 1 -x {1.0 6.0 10 ------- null}
- -t 0.418 -s 4 -d 6 -p cbr -e 500 -c 1 -i 15 -a 1 -x {1.0 6.0 10 ------- null}
h -t 0.418 -s 4 -d 6 -p cbr -e 500 -c 1 -i 15 -a 1 -x {1.0 6.0 -1 ------- null}
- -t 0.422 -s 3 -d 4 -p cbr -e 500 -c 1 -i 24 -a 1 -x {1.0 6.0 15 ------- null}
h -t 0.422 -s 3 -d 4 -p cbr -e 500 -c 1 -i 24 -a 1 -x {1.0 6.0 -1 ------- null}
r -t 0.428 -s 1 -d 3 -p cbr -e 500 -c 1 -i 25 -a 1 -x {1.0 6.0 16 ------- null}
+ -t 0.428 -s 3 -d 4 -p cbr -e 500 -c 1 -i 25 -a 1 -x {1.0 6.0 16 ------- null}
+ -t 0.43 -s 1 -d 3 -p cbr -e 500 -c 1 -i 30 -a 1 -x {1.0 6.0 19 ------- null}
- -t 0.43 -s 1 -d 3 -p cbr -e 500 -c 1 -i 30 -a 1 -x {1.0 6.0 19 ------- null}
h -t 0.43 -s 1 -d 3 -p cbr -e 500 -c 1 -i 30 -a 1 -x {1.0 6.0 -1 ------- null}
- -t 0.43 -s 3 -d 4 -p cbr -e 500 -c 1 -i 25 -a 1 -x {1.0 6.0 16 ------- null}
h -t 0.43 -s 3 -d 4 -p cbr -e 500 -c 1 -i 25 -a 1 -x {1.0 6.0 -1 ------- null}
+ -t 0.43 -s 2 -d 3 -p cbr -e 1000 -c 1 -i 31 -a 1 -x {2.0 7.0 11 ------- null}
- -t 0.43 -s 2 -d 3 -p cbr -e 1000 -c 1 -i 31 -a 1 -x {2.0 7.0 11 ------- null}
h -t 0.43 -s 2 -d 3 -p cbr -e 1000 -c 1 -i 31 -a 1 -x {2.0 7.0 -1 ------- null}
r -t 0.434 -s 3 -d 4 -p cbr -e 1000 -c 1 -i 16 -a 1 -x {2.0 7.0 5 ------- null}
+ -t 0.434 -s 4 -d 7 -p cbr -e 1000 -c 1 -i 16 -a 1 -x {2.0 7.0 5 ------- null}
- -t 0.434 -s 4 -d 7 -p cbr -e 1000 -c 1 -i 16 -a 1 -x {2.0 7.0 5 ------- null}
h -t 0.434 -s 4 -d 7 -p cbr -e 1000 -c 1 -i 16 -a 1 -x {2.0 7.0 -1 ------- null}
r -t 0.436 -s 2 -d 3 -p cbr -e 1000 -c 1 -i 26 -a 1 -x {2.0 7.0 9 ------- null}
+ -t 0.436 -s 3 -d 4 -p cbr -e 1000 -c 1 -i 26 -a 1 -x {2.0 7.0 9 ------- null}
- -t 0.438 -s 3 -d 4 -p cbr -e 1000 -c 1 -i 26 -a 1 -x {2.0 7.0 9 ------- null}
h -t 0.438 -s 3 -d 4 -p cbr -e 1000 -c 1 -i 26 -a 1 -x {2.0 7.0 -1 ------- null}
r -t 0.44 -s 4 -d 7 -p cbr -e 1000 -c 1 -i 11 -a 1 -x {2.0 7.0 3 ------- null}
r -t 0.44 -s 4 -d 6 -p cbr -e 500 -c 1 -i 12 -a 1 -x {1.0 6.0 8 ------- null}
r -t 0.442 -s 3 -d 4 -p cbr -e 500 -c 1 -i 17 -a 1 -x {1.0 6.0 11 ------- null}
+ -t 0.442 -s 4 -d 6 -p cbr -e 500 -c 1 -i 17 -a 1 -x {1.0 6.0 11 ------- null}
- -t 0.442 -s 4 -d 6 -p cbr -e 500 -c 1 -i 17 -a 1 -x {1.0 6.0 11 ------- null}
h -t 0.442 -s 4 -d 6 -p cbr -e 500 -c 1 -i 17 -a 1 -x {1.0 6.0 -1 ------- null}
r -t 0.448 -s 1 -d 3 -p cbr -e 500 -c 1 -i 27 -a 1 -x {1.0 6.0 17 ------- null}
+ -t 0.448 -s 3 -d 4 -p cbr -e 500 -c 1 -i 27 -a 1 -x {1.0 6.0 17 ------- null}
+ -t 0.45 -s 1 -d 3 -p cbr -e 500 -c 1 -i 32 -a 1 -x {1.0 6.0 20 ------- null}
- -t 0.45 -s 1 -d 3 -p cbr -e 500 -c 1 -i 32 -a 1 -x {1.0 6.0 20 ------- null}
h -t 0.45 -s 1 -d 3 -p cbr -e 500 -c 1 -i 32 -a 1 -x {1.0 6.0 -1 ------- null}
- -t 0.454 -s 3 -d 4 -p cbr -e 500 -c 1 -i 27 -a 1 -x {1.0 6.0 17 ------- null}
h -t 0.454 -s 3 -d 4 -p cbr -e 500 -c 1 -i 27 -a 1 -x {1.0 6.0 -1 ------- null}
+ -t 0.46 -s 2 -d 3 -p cbr -e 1000 -c 1 -i 33 -a 1 -x {2.0 7.0 12 ------- null}
- -t 0.46 -s 2 -d 3 -p cbr -e 1000 -c 1 -i 33 -a 1 -x {2.0 7.0 12 ------- null}
h -t 0.46 -s 2 -d 3 -p cbr -e 1000 -c 1 -i 33 -a 1 -x {2.0 7.0 -1 ------- null}
r -t 0.462 -s 3 -d 4 -p cbr -e 1000 -c 1 -i 18 -a 1 -x {2.0 7.0 6 ------- null}
+ -t 0.462 -s 4 -d 7 -p cbr -e 1000 -c 1 -i 18 -a 1 -x {2.0 7.0 6 ------- null}
- -t 0.462 -s 4 -d 7 -p cbr -e 1000 -c 1 -i 18 -a 1 -x {2.0 7.0 6 ------- null}
h -t 0.462 -s 4 -d 7 -p cbr -e 1000 -c 1 -i 18 -a 1 -x {2.0 7.0 -1 ------- null}
r -t 0.466 -s 2 -d 3 -p cbr -e 1000 -c 1 -i 28 -a 1 -x {2.0 7.0 10 ------- null}
+ -t 0.466 -s 3 -d 4 -p cbr -e 1000 -c 1 -i 28 -a 1 -x {2.0 7.0 10 ------- null}
- -t 0.466 -s 3 -d 4 -p cbr -e 1000 -c 1 -i 28 -a 1 -x {2.0 7.0 10 ------- null}
h -t 0.466 -s 3 -d 4 -p cbr -e 1000 -c 1 -i 28 -a 1 -x {2.0 7.0 -1 ------- null}
r -t 0.468 -s 4 -d 7 -p cbr -e 1000 -c 1 -i 13 -a 1 -x {2.0 7.0 4 ------- null}
r -t 0.468 -s 4 -d 6 -p cbr -e 500 -c 1 -i 14 -a 1 -x {1.0 6.0 9 ------- null}
r -t 0.468 -s 1 -d 3 -p cbr -e 500 -c 1 -i 29 -a 1 -x {1.0 6.0 18 ------- null}
+ -t 0.468 -s 3 -d 4 -p cbr -e 500 -c 1 -i 29 -a 1 -x {1.0 6.0 18 ------- null}
r -t 0.47 -s 3 -d 4 -p cbr -e 500 -c 1 -i 19 -a 1 -x {1.0 6.0 12 ------- null}
+ -t 0.47 -s 4 -d 6 -p cbr -e 500 -c 1 -i 19 -a 1 -x {1.0 6.0 12 ------- null}
- -t 0.47 -s 4 -d 6 -p cbr -e 500 -c 1 -i 19 -a 1 -x {1.0 6.0 12 ------- null}
h -t 0.47 -s 4 -d 6 -p cbr -e 500 -c 1 -i 19 -a 1 -x {1.0 6.0 -1 ------- null}
+ -t 0.47 -s 1 -d 3 -p cbr -e 500 -c 1 -i 34 -a 1 -x {1.0 6.0 21 ------- null}
- -t 0.47 -s 1 -d 3 -p cbr -e 500 -c 1 -i 34 -a 1 -x {1.0 6.0 21 ------- null}
h -t 0.47 -s 1 -d 3 -p cbr -e 500 -c 1 -i 34 -a 1 -x {1.0 6.0 -1 ------- null}
r -t 0.476 -s 4 -d 6 -p cbr -e 500 -c 1 -i 15 -a 1 -x {1.0 6.0 10 ------- null}
r -t 0.478 -s 3 -d 4 -p cbr -e 500 -c 1 -i 20 -a 1 -x {1.0 6.0 13 ------- null}
+ -t 0.478 -s 4 -d 6 -p cbr -e 500 -c 1 -i 20 -a 1 -x {1.0 6.0 13 ------- null}
- -t 0.478 -s 4 -d 6 -p cbr -e 500 -c 1 -i 20 -a 1 -x {1.0 6.0 13 ------- null}
h -t 0.478 -s 4 -d 6 -p cbr -e 500 -c 1 -i 20 -a 1 -x {1.0 6.0 -1 ------- null}
- -t 0.482 -s 3 -d 4 -p cbr -e 500 -c 1 -i 29 -a 1 -x {1.0 6.0 18 ------- null}
h -t 0.482 -s 3 -d 4 -p cbr -e 500 -c 1 -i 29 -a 1 -x {1.0 6.0 -1 ------- null}
r -t 0.488 -s 1 -d 3 -p cbr -e 500 -c 1 -i 30 -a 1 -x {1.0 6.0 19 ------- null}
+ -t 0.488 -s 3 -d 4 -p cbr -e 500 -c 1 -i 30 -a 1 -x {1.0 6.0 19 ------- null}
+ -t 0.49 -s 1 -d 3 -p cbr -e 500 -c 1 -i 35 -a 1 -x {1.0 6.0 22 ------- null}
- -t 0.49 -s 1 -d 3 -p cbr -e 500 -c 1 -i 35 -a 1 -x {1.0 6.0 22 ------- null}
h -t 0.49 -s 1 -d 3 -p cbr -e 500 -c 1 -i 35 -a 1 -x {1.0 6.0 -1 ------- null}
- -t 0.49 -s 3 -d 4 -p cbr -e 500 -c 1 -i 30 -a 1 -x {1.0 6.0 19 ------- null}
h -t 0.49 -s 3 -d 4 -p cbr -e 500 -c 1 -i 30 -a 1 -x {1.0 6.0 -1 ------- null}
+ -t 0.49 -s 2 -d 3 -p cbr -e 1000 -c 1 -i 36 -a 1 -x {2.0 7.0 13 ------- null}
- -t 0.49 -s 2 -d 3 -p cbr -e 1000 -c 1 -i 36 -a 1 -x {2.0 7.0 13 ------- null}
h -t 0.49 -s 2 -d 3 -p cbr -e 1000 -c 1 -i 36 -a 1 -x {2.0 7.0 -1 ------- null}
r -t 0.494 -s 3 -d 4 -p cbr -e 1000 -c 1 -i 21 -a 1 -x {2.0 7.0 7 ------- null}
+ -t 0.494 -s 4 -d 7 -p cbr -e 1000 -c 1 -i 21 -a 1 -x {2.0 7.0 7 ------- null}
- -t 0.494 -s 4 -d 7 -p cbr -e 1000 -c 1 -i 21 -a 1 -x {2.0 7.0 7 ------- null}
h -t 0.494 -s 4 -d 7 -p cbr -e 1000 -c 1 -i 21 -a 1 -x {2.0 7.0 -1 ------- null}
r -t 0.496 -s 2 -d 3 -p cbr -e 1000 -c 1 -i 31 -a 1 -x {2.0 7.0 11 ------- null}
+ -t 0.496 -s 3 -d 4 -p cbr -e 1000 -c 1 -i 31 -a 1 -x {2.0 7.0 11 ------- null}
- -t 0.498 -s 3 -d 4 -p cbr -e 1000 -c 1 -i 31 -a 1 -x {2.0 7.0 11 ------- null}
h -t 0.498 -s 3 -d 4 -p cbr -e 1000 -c 1 -i 31 -a 1 -x {2.0 7.0 -1 ------- null}
+ -t 0.5 -s 0 -d 3 -p tcp -e 1000 -c 0 -i 37 -a 0 -x {0.0 5.0 0 ------- null}
- -t 0.5 -s 0 -d 3 -p tcp -e 1000 -c 0 -i 37 -a 0 -x {0.0 5.0 0 ------- null}
h -t 0.5 -s 0 -d 3 -p tcp -e 1000 -c 0 -i 37 -a 0 -x {0.0 5.0 -1 ------- null}
v -t 0.5 -e take_snapshot
v -t 0.5 -e sim_annotation 0.5 3 FTP starts
r -t 0.5 -s 4 -d 7 -p cbr -e 1000 -c 1 -i 16 -a 1 -x {2.0 7.0 5 ------- null}
r -t 0.5 -s 4 -d 6 -p cbr -e 500 -c 1 -i 17 -a 1 -x {1.0 6.0 11 ------- null}
r -t 0.502 -s 3 -d 4 -p cbr -e 500 -c 1 -i 22 -a 1 -x {1.0 6.0 14 ------- null}
+ -t 0.502 -s 4 -d 6 -p cbr -e 500 -c 1 -i 22 -a 1 -x {1.0 6.0 14 ------- null}
- -t 0.502 -s 4 -d 6 -p cbr -e 500 -c 1 -i 22 -a 1 -x {1.0 6.0 14 ------- null}
h -t 0.502 -s 4 -d 6 -p cbr -e 500 -c 1 -i 22 -a 1 -x {1.0 6.0 -1 ------- null}
r -t 0.508 -s 1 -d 3 -p cbr -e 500 -c 1 -i 32 -a 1 -x {1.0 6.0 20 ------- null}
+ -t 0.508 -s 3 -d 4 -p cbr -e 500 -c 1 -i 32 -a 1 -x {1.0 6.0 20 ------- null}
+ -t 0.51 -s 1 -d 3 -p cbr -e 500 -c 1 -i 38 -a 1 -x {1.0 6.0 23 ------- null}
- -t 0.51 -s 1 -d 3 -p cbr -e 500 -c 1 -i 38 -a 1 -x {1.0 6.0 23 ------- null}
h -t 0.51 -s 1 -d 3 -p cbr -e 500 -c 1 -i 38 -a 1 -x {1.0 6.0 -1 ------- null}
- -t 0.514 -s 3 -d 4 -p cbr -e 500 -c 1 -i 32 -a 1 -x {1.0 6.0 20 ------- null}