v 0 eval {set sim_annotation {Sliding Window with window size 4 (normal operation)}}
v 0.050000000000000003 eval {set sim_annotation {FTP starts at 0.1}}
+ 0.1 0 1 tcp 1000 ------- 0 0.0 1.0 0 0
- 0.1 0 1 tcp 1000 ------- 0 0.0 1.0 0 0
+ 0.1 0 1 tcp 1000 ------- 0 0.0 1.0 1 1
+ 0.1 0 1 tcp 1000 ------- 0 0.0 1.0 2 2
+ 0.1 0 1 tcp 1000 ------- 0 0.0 1.0 3 3
v 0.11 eval {set sim_annotation {Send Packet_0,1,2,3}}
- 0.14 0 1 tcp 1000 ------- 0 0.0 1.0 1 1
- 0.18 0 1 tcp 1000 ------- 0 0.0 1.0 2 2
- 0.22 0 1 tcp 1000 ------- 0 0.0 1.0 3 3
v 0.34000000000000002 eval {set sim_annotation {Receive Ack_0,1,2,3}}
r 0.34 0 1 tcp 1000 ------- 0 0.0 1.0 0 0
+ 0.34 1 0 ack 40 ------- 0 1.0 0.0 0 4
- 0.34 1 0 ack 40 ------- 0 1.0 0.0 0 4
r 0.38 0 1 tcp 1000 ------- 0 0.0 1.0 1 1
+ 0.38 1 0 ack 40 ------- 0 1.0 0.0 1 5
- 0.38 1 0 ack 40 ------- 0 1.0 0.0 1 5
r 0.42 0 1 tcp 1000 ------- 0 0.0 1.0 2 2
+ 0.42 1 0 ack 40 ------- 0 1.0 0.0 2 6
- 0.42 1 0 ack 40 ------- 0 1.0 0.0 2 6
r 0.46 0 1 tcp 1000 ------- 0 0.0 1.0 3 3
+ 0.46 1 0 ack 40 ------- 0 1.0 0.0 3 7
- 0.46 1 0 ack 40 ------- 0 1.0 0.0 3 7
r 0.5416 1 0 ack 40 ------- 0 1.0 0.0 0 4
+ 0.5416 0 1 tcp 1000 ------- 0 0.0 1.0 4 8
- 0.5416 0 1 tcp 1000 ------- 0 0.0 1.0 4 8
v 0.56000000000000005 eval {set sim_annotation {Send Packet_4,5,6,7}}
r 0.5816 1 0 ack 40 ------- 0 1.0 0.0 1 5
+ 0.5816 0 1 tcp 1000 ------- 0 0.0 1.0 5 9
- 0.5816 0 1 tcp 1000 ------- 0 0.0 1.0 5 9
r 0.6216 1 0 ack 40 ------- 0 1.0 0.0 2 6
+ 0.6216 0 1 tcp 1000 ------- 0 0.0 1.0 6 10
- 0.6216 0 1 tcp 1000 ------- 0 0.0 1.0 6 10
r 0.6616 1 0 ack 40 ------- 0 1.0 0.0 3 7
+ 0.6616 0 1 tcp 1000 ------- 0 0.0 1.0 7 11
- 0.6616 0 1 tcp 1000 ------- 0 0.0 1.0 7 11
r 0.7816 0 1 tcp 1000 ------- 0 0.0 1.0 4 8
+ 0.7816 1 0 ack 40 ------- 0 1.0 0.0 4 12
- 0.7816 1 0 ack 40 ------- 0 1.0 0.0 4 12
v 0.79000000000000004 eval {set sim_annotation {Receive Ack_4,5,6,7}}
r 0.8216 0 1 tcp 1000 ------- 0 0.0 1.0 5 9
+ 0.8216 1 0 ack 40 ------- 0 1.0 0.0 5 13
- 0.8216 1 0 ack 40 ------- 0 1.0 0.0 5 13
r 0.8616 0 1 tcp 1000 ------- 0 0.0 1.0 6 10
+ 0.8616 1 0 ack 40 ------- 0 1.0 0.0 6 14
- 0.8616 1 0 ack 40 ------- 0 1.0 0.0 6 14
r 0.9016 0 1 tcp 1000 ------- 0 0.0 1.0 7 11
+ 0.9016 1 0 ack 40 ------- 0 1.0 0.0 7 15
- 0.9016 1 0 ack 40 ------- 0 1.0 0.0 7 15
r 0.9832 1 0 ack 40 ------- 0 1.0 0.0 4 12
+ 0.9832 0 1 tcp 1000 ------- 0 0.0 1.0 8 16
- 0.9832 0 1 tcp 1000 ------- 0 0.0 1.0 8 16
v 0.98999999999999999 eval {set sim_annotation {Send Packet_8,9,10,11}}
r 1.0232 1 0 ack 40 ------- 0 1.0 0.0 5 13
+ 1.0232 0 1 tcp 1000 ------- 0 0.0 1.0 9 17
- 1.0232 0 1 tcp 1000 ------- 0 0.0 1.0 9 17
r 1.0632 1 0 ack 40 ------- 0 1.0 0.0 6 14
+ 1.0632 0 1 tcp 1000 ------- 0 0.0 1.0 10 18
- 1.0632 0 1 tcp 1000 ------- 0 0.0 1.0 10 18
r 1.1032 1 0 ack 40 ------- 0 1.0 0.0 7 15
+ 1.1032 0 1 tcp 1000 ------- 0 0.0 1.0 11 19
- 1.1032 0 1 tcp 1000 ------- 0 0.0 1.0 11 19
r 1.2232 0 1 tcp 1000 ------- 0 0.0 1.0 8 16
+ 1.2232 1 0 ack 40 ------- 0 1.0 0.0 8 20
- 1.2232 1 0 ack 40 ------- 0 1.0 0.0 8 20
v 1.23 eval {set sim_annotation {Receive Ack_8,9,10,11 }}
r 1.2632 0 1 tcp 1000 ------- 0 0.0 1.0 9 17
+ 1.2632 1 0 ack 40 ------- 0 1.0 0.0 9 21
- 1.2632 1 0 ack 40 ------- 0 1.0 0.0 9 21
r 1.3032 0 1 tcp 1000 ------- 0 0.0 1.0 10 18
+ 1.3032 1 0 ack 40 ------- 0 1.0 0.0 10 22
- 1.3032 1 0 ack 40 ------- 0 1.0 0.0 10 22
r 1.3432 0 1 tcp 1000 ------- 0 0.0 1.0 11 19
+ 1.3432 1 0 ack 40 ------- 0 1.0 0.0 11 23
- 1.3432 1 0 ack 40 ------- 0 1.0 0.0 11 23
r 1.4248 1 0 ack 40 ------- 0 1.0 0.0 8 20
+ 1.4248 0 1 tcp 1000 ------- 0 0.0 1.0 12 24
- 1.4248 0 1 tcp 1000 ------- 0 0.0 1.0 12 24
v 1.4299999999999999 eval {set sim_annotation {Send Packet_12,13,14,15}}
r 1.4648 1 0 ack 40 ------- 0 1.0 0.0 9 21
+ 1.4648 0 1 tcp 1000 ------- 0 0.0 1.0 13 25
- 1.4648 0 1 tcp 1000 ------- 0 0.0 1.0 13 25
r 1.5048 1 0 ack 40 ------- 0 1.0 0.0 10 22
+ 1.5048 0 1 tcp 1000 ------- 0 0.0 1.0 14 26
- 1.5048 0 1 tcp 1000 ------- 0 0.0 1.0 14 26
r 1.5448 1 0 ack 40 ------- 0 1.0 0.0 11 23
+ 1.5448 0 1 tcp 1000 ------- 0 0.0 1.0 15 27
- 1.5448 0 1 tcp 1000 ------- 0 0.0 1.0 15 27
r 1.6648 0 1 tcp 1000 ------- 0 0.0 1.0 12 24
+ 1.6648 1 0 ack 40 ------- 0 1.0 0.0 12 28
- 1.6648 1 0 ack 40 ------- 0 1.0 0.0 12 28
v 1.6699999999999999 eval {set sim_annotation {Receive Ack_12,13,14,15}}
r 1.7048 0 1 tcp 1000 ------- 0 0.0 1.0 13 25
+ 1.7048 1 0 ack 40 ------- 0 1.0 0.0 13 29
- 1.7048 1 0 ack 40 ------- 0 1.0 0.0 13 29
r 1.7448 0 1 tcp 1000 ------- 0 0.0 1.0 14 26
+ 1.7448 1 0 ack 40 ------- 0 1.0 0.0 14 30
- 1.7448 1 0 ack 40 ------- 0 1.0 0.0 14 30
r 1.7848 0 1 tcp 1000 ------- 0 0.0 1.0 15 27
+ 1.7848 1 0 ack 40 ------- 0 1.0 0.0 15 31
- 1.7848 1 0 ack 40 ------- 0 1.0 0.0 15 31
r 1.8664 1 0 ack 40 ------- 0 1.0 0.0 12 28
+ 1.8664 0 1 tcp 1000 ------- 0 0.0 1.0 16 32
- 1.8664 0 1 tcp 1000 ------- 0 0.0 1.0 16 32
v 1.8799999999999999 eval {set sim_annotation {Send Packet_16,17,18,19}}
r 1.9064 1 0 ack 40 ------- 0 1.0 0.0 13 29
+ 1.9064 0 1 tcp 1000 ------- 0 0.0 1.0 17 33
- 1.9064 0 1 tcp 1000 ------- 0 0.0 1.0 17 33
r 1.9464 1 0 ack 40 ------- 0 1.0 0.0 14 30
+ 1.9464 0 1 tcp 1000 ------- 0 0.0 1.0 18 34
- 1.9464 0 1 tcp 1000 ------- 0 0.0 1.0 18 34
r 1.9864 1 0 ack 40 ------- 0 1.0 0.0 15 31
+ 1.9864 0 1 tcp 1000 ------- 0 0.0 1.0 19 35
- 1.9864 0 1 tcp 1000 ------- 0 0.0 1.0 19 35
r 2.1064 0 1 tcp 1000 ------- 0 0.0 1.0 16 32
+ 2.1064 1 0 ack 40 ------- 0 1.0 0.0 16 36
- 2.1064 1 0 ack 40 ------- 0 1.0 0.0 16 36
v 2.1099999999999999 eval {set sim_annotation {Receive Ack_16,17,18,19}}
r 2.1464 0 1 tcp 1000 ------- 0 0.0 1.0 17 33
+ 2.1464 1 0 ack 40 ------- 0 1.0 0.0 17 37
- 2.1464 1 0 ack 40 ------- 0 1.0 0.0 17 37
r 2.1864 0 1 tcp 1000 ------- 0 0.0 1.0 18 34
+ 2.1864 1 0 ack 40 ------- 0 1.0 0.0 18 38
- 2.1864 1 0 ack 40 ------- 0 1.0 0.0 18 38
r 2.2264 0 1 tcp 1000 ------- 0 0.0 1.0 19 35
+ 2.2264 1 0 ack 40 ------- 0 1.0 0.0 19 39
- 2.2264 1 0 ack 40 ------- 0 1.0 0.0 19 39
r 2.308 1 0 ack 40 ------- 0 1.0 0.0 16 36
+ 2.308 0 1 tcp 1000 ------- 0 0.0 1.0 20 40
- 2.308 0 1 tcp 1000 ------- 0 0.0 1.0 20 40
v 2.3199999999999998 eval {set sim_annotation {Send Packet_20,21,22,23}}
r 2.348 1 0 ack 40 ------- 0 1.0 0.0 17 37
+ 2.348 0 1 tcp 1000 ------- 0 0.0 1.0 21 41
- 2.348 0 1 tcp 1000 ------- 0 0.0 1.0 21 41
r 2.388 1 0 ack 40 ------- 0 1.0 0.0 18 38
+ 2.388 0 1 tcp 1000 ------- 0 0.0 1.0 22 42
- 2.388 0 1 tcp 1000 ------- 0 0.0 1.0 22 42
r 2.428 1 0 ack 40 ------- 0 1.0 0.0 19 39
+ 2.428 0 1 tcp 1000 ------- 0 0.0 1.0 23 43
- 2.428 0 1 tcp 1000 ------- 0 0.0 1.0 23 43
r 2.548 0 1 tcp 1000 ------- 0 0.0 1.0 20 40
+ 2.548 1 0 ack 40 ------- 0 1.0 0.0 20 44
- 2.548 1 0 ack 40 ------- 0 1.0 0.0 20 44
v 2.5600000000000001 eval {set sim_annotation {Receive Ack_24,25,26,27}}
r 2.588 0 1 tcp 1000 ------- 0 0.0 1.0 21 41
+ 2.588 1 0 ack 40 ------- 0 1.0 0.0 21 45
- 2.588 1 0 ack 40 ------- 0 1.0 0.0 21 45
r 2.628 0 1 tcp 1000 ------- 0 0.0 1.0 22 42
+ 2.628 1 0 ack 40 ------- 0 1.0 0.0 22 46
- 2.628 1 0 ack 40 ------- 0 1.0 0.0 22 46
r 2.668 0 1 tcp 1000 ------- 0 0.0 1.0 23 43
+ 2.668 1 0 ack 40 ------- 0 1.0 0.0 23 47
- 2.668 1 0 ack 40 ------- 0 1.0 0.0 23 47
r 2.7496 1 0 ack 40 ------- 0 1.0 0.0 20 44
+ 2.7496 0 1 tcp 1000 ------- 0 0.0 1.0 24 48
- 2.7496 0 1 tcp 1000 ------- 0 0.0 1.0 24 48
v 2.7599999999999998 eval {set sim_annotation {Send Packet_28,29,30,31}}
r 2.7896 1 0 ack 40 ------- 0 1.0 0.0 21 45
+ 2.7896 0 1 tcp 1000 ------- 0 0.0 1.0 25 49
- 2.7896 0 1 tcp 1000 ------- 0 0.0 1.0 25 49
r 2.8296 1 0 ack 40 ------- 0 1.0 0.0 22 46
+ 2.8296 0 1 tcp 1000 ------- 0 0.0 1.0 26 50
- 2.8296 0 1 tcp 1000 ------- 0 0.0 1.0 26 50
r 2.8696 1 0 ack 40 ------- 0 1.0 0.0 23 47
+ 2.8696 0 1 tcp 1000 ------- 0 0.0 1.0 27 51
- 2.8696 0 1 tcp 1000 ------- 0 0.0 1.0 27 51
r 2.9896 0 1 tcp 1000 ------- 0 0.0 1.0 24 48
+ 2.9896 1 0 ack 40 ------- 0 1.0 0.0 24 52
- 2.9896 1 0 ack 40 ------- 0 1.0 0.0 24 52
v 3 eval {set sim_annotation {Receive Ack_28}}
r 3.0296 0 1 tcp 1000 ------- 0 0.0 1.0 25 49
r 3.0696 0 1 tcp 1000 ------- 0 0.0 1.0 26 50
v 3.1000000000000001 eval {set sim_annotation {FTP stops}}
r 3.1096 0 1 tcp 1000 ------- 0 0.0 1.0 27 51
r 3.1912 1 0 ack 40 ------- 0 1.0 0.0 24 52
