v 0 eval {set sim_annotation {Slow Start with maximum window size 8 (normal operation)}}
v 0.050000000000000003 eval {set sim_annotation {FTP starts at 0.1}}
+ 0.1 0 1 tcp 1000 ------- 0 0.0 1.0 0 0
- 0.1 0 1 tcp 1000 ------- 0 0.0 1.0 0 0
v 0.11 eval {set sim_annotation {Send Packet_0 : Initial window size = 1}}
v 0.34000000000000002 eval {set sim_annotation {Receive Ack_0}}
r 0.34 0 1 tcp 1000 ------- 0 0.0 1.0 0 0
+ 0.34 1 0 ack 40 ------- 0 1.0 0.0 0 1
- 0.34 1 0 ack 40 ------- 0 1.0 0.0 0 1
r 0.5416 1 0 ack 40 ------- 0 1.0 0.0 0 1
+ 0.5416 0 1 tcp 1000 ------- 0 0.0 1.0 1 2
- 0.5416 0 1 tcp 1000 ------- 0 0.0 1.0 1 2
+ 0.5416 0 1 tcp 1000 ------- 0 0.0 1.0 2 3
v 0.56000000000000005 eval {set sim_annotation {Send Packet_1,2 : Increase window size to 2}}
- 0.5816 0 1 tcp 1000 ------- 0 0.0 1.0 2 3
r 0.7816 0 1 tcp 1000 ------- 0 0.0 1.0 1 2
+ 0.7816 1 0 ack 40 ------- 0 1.0 0.0 1 4
- 0.7816 1 0 ack 40 ------- 0 1.0 0.0 1 4
v 0.79000000000000004 eval {set sim_annotation {Receive Ack_1,2}}
r 0.8216 0 1 tcp 1000 ------- 0 0.0 1.0 2 3
+ 0.8216 1 0 ack 40 ------- 0 1.0 0.0 2 5
- 0.8216 1 0 ack 40 ------- 0 1.0 0.0 2 5
r 0.9832 1 0 ack 40 ------- 0 1.0 0.0 1 4
+ 0.9832 0 1 tcp 1000 ------- 0 0.0 1.0 3 6
- 0.9832 0 1 tcp 1000 ------- 0 0.0 1.0 3 6
+ 0.9832 0 1 tcp 1000 ------- 0 0.0 1.0 4 7
v 0.98999999999999999 eval {set sim_annotation {Send Packet_3,4,5,6 : Increase window size to 4}}
r 1.0232 1 0 ack 40 ------- 0 1.0 0.0 2 5
+ 1.0232 0 1 tcp 1000 ------- 0 0.0 1.0 5 8
+ 1.0232 0 1 tcp 1000 ------- 0 0.0 1.0 6 9
- 1.0232 0 1 tcp 1000 ------- 0 0.0 1.0 4 7
- 1.0632 0 1 tcp 1000 ------- 0 0.0 1.0 5 8
- 1.1032 0 1 tcp 1000 ------- 0 0.0 1.0 6 9
r 1.2232 0 1 tcp 1000 ------- 0 0.0 1.0 3 6
+ 1.2232 1 0 ack 40 ------- 0 1.0 0.0 3 10
- 1.2232 1 0 ack 40 ------- 0 1.0 0.0 3 10
v 1.23 eval {set sim_annotation {Receive Ack_3,4,5,6  }}
r 1.2632 0 1 tcp 1000 ------- 0 0.0 1.0 4 7
+ 1.2632 1 0 ack 40 ------- 0 1.0 0.0 4 11
- 1.2632 1 0 ack 40 ------- 0 1.0 0.0 4 11
r 1.3032 0 1 tcp 1000 ------- 0 0.0 1.0 5 8
+ 1.3032 1 0 ack 40 ------- 0 1.0 0.0 5 12
- 1.3032 1 0 ack 40 ------- 0 1.0 0.0 5 12
r 1.3432 0 1 tcp 1000 ------- 0 0.0 1.0 6 9
+ 1.3432 1 0 ack 40 ------- 0 1.0 0.0 6 13
- 1.3432 1 0 ack 40 ------- 0 1.0 0.0 6 13
r 1.4248 1 0 ack 40 ------- 0 1.0 0.0 3 10
+ 1.4248 0 1 tcp 1000 ------- 0 0.0 1.0 7 14
- 1.4248 0 1 tcp 1000 ------- 0 0.0 1.0 7 14
+ 1.4248 0 1 tcp 1000 ------- 0 0.0 1.0 8 15
v 1.4299999999999999 eval {set sim_annotation {Send Packet_7,8,9,10,11,12,13,14 : Increase window size to 8}}
r 1.4648 1 0 ack 40 ------- 0 1.0 0.0 4 11
+ 1.4648 0 1 tcp 1000 ------- 0 0.0 1.0 9 16
+ 1.4648 0 1 tcp 1000 ------- 0 0.0 1.0 10 17
- 1.4648 0 1 tcp 1000 ------- 0 0.0 1.0 8 15
r 1.5048 1 0 ack 40 ------- 0 1.0 0.0 5 12
+ 1.5048 0 1 tcp 1000 ------- 0 0.0 1.0 11 18
+ 1.5048 0 1 tcp 1000 ------- 0 0.0 1.0 12 19
- 1.5048 0 1 tcp 1000 ------- 0 0.0 1.0 9 16
r 1.5448 1 0 ack 40 ------- 0 1.0 0.0 6 13
+ 1.5448 0 1 tcp 1000 ------- 0 0.0 1.0 13 20
+ 1.5448 0 1 tcp 1000 ------- 0 0.0 1.0 14 21
- 1.5448 0 1 tcp 1000 ------- 0 0.0 1.0 10 17
- 1.5848 0 1 tcp 1000 ------- 0 0.0 1.0 11 18
- 1.6248 0 1 tcp 1000 ------- 0 0.0 1.0 12 19
r 1.6648 0 1 tcp 1000 ------- 0 0.0 1.0 7 14
+ 1.6648 1 0 ack 40 ------- 0 1.0 0.0 7 22
- 1.6648 1 0 ack 40 ------- 0 1.0 0.0 7 22
- 1.6648 0 1 tcp 1000 ------- 0 0.0 1.0 13 20
v 1.6699999999999999 eval {set sim_annotation {Receive Ack_7,8,9,10,11,12,13,14}}
r 1.7048 0 1 tcp 1000 ------- 0 0.0 1.0 8 15
+ 1.7048 1 0 ack 40 ------- 0 1.0 0.0 8 23
- 1.7048 1 0 ack 40 ------- 0 1.0 0.0 8 23
- 1.7048 0 1 tcp 1000 ------- 0 0.0 1.0 14 21
r 1.7448 0 1 tcp 1000 ------- 0 0.0 1.0 9 16
+ 1.7448 1 0 ack 40 ------- 0 1.0 0.0 9 24
- 1.7448 1 0 ack 40 ------- 0 1.0 0.0 9 24
r 1.7848 0 1 tcp 1000 ------- 0 0.0 1.0 10 17
+ 1.7848 1 0 ack 40 ------- 0 1.0 0.0 10 25
- 1.7848 1 0 ack 40 ------- 0 1.0 0.0 10 25
r 1.8248 0 1 tcp 1000 ------- 0 0.0 1.0 11 18
+ 1.8248 1 0 ack 40 ------- 0 1.0 0.0 11 26
- 1.8248 1 0 ack 40 ------- 0 1.0 0.0 11 26
r 1.8648 0 1 tcp 1000 ------- 0 0.0 1.0 12 19
+ 1.8648 1 0 ack 40 ------- 0 1.0 0.0 12 27
- 1.8648 1 0 ack 40 ------- 0 1.0 0.0 12 27
r 1.8664 1 0 ack 40 ------- 0 1.0 0.0 7 22
+ 1.8664 0 1 tcp 1000 ------- 0 0.0 1.0 15 28
- 1.8664 0 1 tcp 1000 ------- 0 0.0 1.0 15 28
v 1.8799999999999999 eval {set sim_annotation {Send Packet_15,16,17,18,19,20,21,22 : Keep maximum window size,8}}
r 1.9048 0 1 tcp 1000 ------- 0 0.0 1.0 13 20
+ 1.9048 1 0 ack 40 ------- 0 1.0 0.0 13 29
- 1.9048 1 0 ack 40 ------- 0 1.0 0.0 13 29
r 1.9064 1 0 ack 40 ------- 0 1.0 0.0 8 23
+ 1.9064 0 1 tcp 1000 ------- 0 0.0 1.0 16 30
- 1.9064 0 1 tcp 1000 ------- 0 0.0 1.0 16 30
r 1.9448 0 1 tcp 1000 ------- 0 0.0 1.0 14 21
+ 1.9448 1 0 ack 40 ------- 0 1.0 0.0 14 31
- 1.9448 1 0 ack 40 ------- 0 1.0 0.0 14 31
r 1.9464 1 0 ack 40 ------- 0 1.0 0.0 9 24
+ 1.9464 0 1 tcp 1000 ------- 0 0.0 1.0 17 32
- 1.9464 0 1 tcp 1000 ------- 0 0.0 1.0 17 32
r 1.9864 1 0 ack 40 ------- 0 1.0 0.0 10 25
+ 1.9864 0 1 tcp 1000 ------- 0 0.0 1.0 18 33
- 1.9864 0 1 tcp 1000 ------- 0 0.0 1.0 18 33
r 2.0264 1 0 ack 40 ------- 0 1.0 0.0 11 26
+ 2.0264 0 1 tcp 1000 ------- 0 0.0 1.0 19 34
- 2.0264 0 1 tcp 1000 ------- 0 0.0 1.0 19 34
r 2.0664 1 0 ack 40 ------- 0 1.0 0.0 12 27
+ 2.0664 0 1 tcp 1000 ------- 0 0.0 1.0 20 35
- 2.0664 0 1 tcp 1000 ------- 0 0.0 1.0 20 35
r 2.1064 0 1 tcp 1000 ------- 0 0.0 1.0 15 28
+ 2.1064 1 0 ack 40 ------- 0 1.0 0.0 15 36
- 2.1064 1 0 ack 40 ------- 0 1.0 0.0 15 36
r 2.1064 1 0 ack 40 ------- 0 1.0 0.0 13 29
+ 2.1064 0 1 tcp 1000 ------- 0 0.0 1.0 21 37
- 2.1064 0 1 tcp 1000 ------- 0 0.0 1.0 21 37
v 2.1099999999999999 eval {set sim_annotation {Receive Ack_15,16,17,18,19,20,21,22}}
r 2.1464 0 1 tcp 1000 ------- 0 0.0 1.0 16 30
+ 2.1464 1 0 ack 40 ------- 0 1.0 0.0 16 38
- 2.1464 1 0 ack 40 ------- 0 1.0 0.0 16 38
r 2.1464 1 0 ack 40 ------- 0 1.0 0.0 14 31
+ 2.1464 0 1 tcp 1000 ------- 0 0.0 1.0 22 39
- 2.1464 0 1 tcp 1000 ------- 0 0.0 1.0 22 39
r 2.1864 0 1 tcp 1000 ------- 0 0.0 1.0 17 32
+ 2.1864 1 0 ack 40 ------- 0 1.0 0.0 17 40
- 2.1864 1 0 ack 40 ------- 0 1.0 0.0 17 40
r 2.2264 0 1 tcp 1000 ------- 0 0.0 1.0 18 33
+ 2.2264 1 0 ack 40 ------- 0 1.0 0.0 18 41
- 2.2264 1 0 ack 40 ------- 0 1.0 0.0 18 41
r 2.2664 0 1 tcp 1000 ------- 0 0.0 1.0 19 34
+ 2.2664 1 0 ack 40 ------- 0 1.0 0.0 19 42
- 2.2664 1 0 ack 40 ------- 0 1.0 0.0 19 42
r 2.3064 0 1 tcp 1000 ------- 0 0.0 1.0 20 35
+ 2.3064 1 0 ack 40 ------- 0 1.0 0.0 20 43
- 2.3064 1 0 ack 40 ------- 0 1.0 0.0 20 43
r 2.308 1 0 ack 40 ------- 0 1.0 0.0 15 36
+ 2.308 0 1 tcp 1000 ------- 0 0.0 1.0 23 44
- 2.308 0 1 tcp 1000 ------- 0 0.0 1.0 23 44
v 2.3199999999999998 eval {set sim_annotation {Send Packet_23,24,25,26,27,28,29,30 : Keep maximum window size, 8}}
r 2.3464 0 1 tcp 1000 ------- 0 0.0 1.0 21 37
+ 2.3464 1 0 ack 40 ------- 0 1.0 0.0 21 45
- 2.3464 1 0 ack 40 ------- 0 1.0 0.0 21 45
r 2.348 1 0 ack 40 ------- 0 1.0 0.0 16 38
+ 2.348 0 1 tcp 1000 ------- 0 0.0 1.0 24 46
- 2.348 0 1 tcp 1000 ------- 0 0.0 1.0 24 46
r 2.3864 0 1 tcp 1000 ------- 0 0.0 1.0 22 39
+ 2.3864 1 0 ack 40 ------- 0 1.0 0.0 22 47
- 2.3864 1 0 ack 40 ------- 0 1.0 0.0 22 47
r 2.388 1 0 ack 40 ------- 0 1.0 0.0 17 40
+ 2.388 0 1 tcp 1000 ------- 0 0.0 1.0 25 48
- 2.388 0 1 tcp 1000 ------- 0 0.0 1.0 25 48
r 2.428 1 0 ack 40 ------- 0 1.0 0.0 18 41
+ 2.428 0 1 tcp 1000 ------- 0 0.0 1.0 26 49
- 2.428 0 1 tcp 1000 ------- 0 0.0 1.0 26 49
r 2.468 1 0 ack 40 ------- 0 1.0 0.0 19 42
+ 2.468 0 1 tcp 1000 ------- 0 0.0 1.0 27 50
- 2.468 0 1 tcp 1000 ------- 0 0.0 1.0 27 50
r 2.508 1 0 ack 40 ------- 0 1.0 0.0 20 43
+ 2.508 0 1 tcp 1000 ------- 0 0.0 1.0 28 51
- 2.508 0 1 tcp 1000 ------- 0 0.0 1.0 28 51
r 2.548 0 1 tcp 1000 ------- 0 0.0 1.0 23 44
+ 2.548 1 0 ack 40 ------- 0 1.0 0.0 23 52
- 2.548 1 0 ack 40 ------- 0 1.0 0.0 23 52
r 2.548 1 0 ack 40 ------- 0 1.0 0.0 21 45
+ 2.548 0 1 tcp 1000 ------- 0 0.0 1.0 29 53
- 2.548 0 1 tcp 1000 ------- 0 0.0 1.0 29 53
v 2.5600000000000001 eval {set sim_annotation {Receive Ack_23,24,25,26,27,28,29,30}}
r 2.588 0 1 tcp 1000 ------- 0 0.0 1.0 24 46
+ 2.588 1 0 ack 40 ------- 0 1.0 0.0 24 54
- 2.588 1 0 ack 40 ------- 0 1.0 0.0 24 54
r 2.588 1 0 ack 40 ------- 0 1.0 0.0 22 47
+ 2.588 0 1 tcp 1000 ------- 0 0.0 1.0 30 55
- 2.588 0 1 tcp 1000 ------- 0 0.0 1.0 30 55
r 2.628 0 1 tcp 1000 ------- 0 0.0 1.0 25 48
+ 2.628 1 0 ack 40 ------- 0 1.0 0.0 25 56
- 2.628 1 0 ack 40 ------- 0 1.0 0.0 25 56
r 2.668 0 1 tcp 1000 ------- 0 0.0 1.0 26 49
+ 2.668 1 0 ack 40 ------- 0 1.0 0.0 26 57
- 2.668 1 0 ack 40 ------- 0 1.0 0.0 26 57
r 2.708 0 1 tcp 1000 ------- 0 0.0 1.0 27 50
+ 2.708 1 0 ack 40 ------- 0 1.0 0.0 27 58
- 2.708 1 0 ack 40 ------- 0 1.0 0.0 27 58
r 2.748 0 1 tcp 1000 ------- 0 0.0 1.0 28 51
+ 2.748 1 0 ack 40 ------- 0 1.0 0.0 28 59
- 2.748 1 0 ack 40 ------- 0 1.0 0.0 28 59
r 2.7496 1 0 ack 40 ------- 0 1.0 0.0 23 52
+ 2.7496 0 1 tcp 1000 ------- 0 0.0 1.0 31 60
- 2.7496 0 1 tcp 1000 ------- 0 0.0 1.0 31 60
v 2.7799999999999998 eval {set sim_annotation {Send Packet_31,32,33,34,35,36,37,38 : Keep maximum window size, 8}}
r 2.788 0 1 tcp 1000 ------- 0 0.0 1.0 29 53
+ 2.788 1 0 ack 40 ------- 0 1.0 0.0 29 61
- 2.788 1 0 ack 40 ------- 0 1.0 0.0 29 61
r 2.7896 1 0 ack 40 ------- 0 1.0 0.0 24 54
+ 2.7896 0 1 tcp 1000 ------- 0 0.0 1.0 32 62
- 2.7896 0 1 tcp 1000 ------- 0 0.0 1.0 32 62
r 2.828 0 1 tcp 1000 ------- 0 0.0 1.0 30 55
+ 2.828 1 0 ack 40 ------- 0 1.0 0.0 30 63
- 2.828 1 0 ack 40 ------- 0 1.0 0.0 30 63
r 2.8296 1 0 ack 40 ------- 0 1.0 0.0 25 56
+ 2.8296 0 1 tcp 1000 ------- 0 0.0 1.0 33 64
- 2.8296 0 1 tcp 1000 ------- 0 0.0 1.0 33 64
r 2.8696 1 0 ack 40 ------- 0 1.0 0.0 26 57
+ 2.8696 0 1 tcp 1000 ------- 0 0.0 1.0 34 65
- 2.8696 0 1 tcp 1000 ------- 0 0.0 1.0 34 65
r 2.9096 1 0 ack 40 ------- 0 1.0 0.0 27 58
+ 2.9096 0 1 tcp 1000 ------- 0 0.0 1.0 35 66
- 2.9096 0 1 tcp 1000 ------- 0 0.0 1.0 35 66
r 2.9496 1 0 ack 40 ------- 0 1.0 0.0 28 59
+ 2.9496 0 1 tcp 1000 ------- 0 0.0 1.0 36 67
- 2.9496 0 1 tcp 1000 ------- 0 0.0 1.0 36 67
r 2.9896 0 1 tcp 1000 ------- 0 0.0 1.0 31 60
+ 2.9896 1 0 ack 40 ------- 0 1.0 0.0 31 68
- 2.9896 1 0 ack 40 ------- 0 1.0 0.0 31 68
r 2.9896 1 0 ack 40 ------- 0 1.0 0.0 29 61
+ 2.9896 0 1 tcp 1000 ------- 0 0.0 1.0 37 69
- 2.9896 0 1 tcp 1000 ------- 0 0.0 1.0 37 69
v 3 eval {set sim_annotation {Receive Ack_31}}
r 3.0296 0 1 tcp 1000 ------- 0 0.0 1.0 32 62
r 3.0296 1 0 ack 40 ------- 0 1.0 0.0 30 63
r 3.0696 0 1 tcp 1000 ------- 0 0.0 1.0 33 64
v 3.1000000000000001 eval {set sim_annotation {FTP stops}}
r 3.1096 0 1 tcp 1000 ------- 0 0.0 1.0 34 65
r 3.1496 0 1 tcp 1000 ------- 0 0.0 1.0 35 66
r 3.1896 0 1 tcp 1000 ------- 0 0.0 1.0 36 67
r 3.1912 1 0 ack 40 ------- 0 1.0 0.0 31 68
r 3.2296 0 1 tcp 1000 ------- 0 0.0 1.0 37 69
