v 0 eval {set sim_annotation {Slow Start with maximum window size 8 (in congestion)}}
v 0.050000000000000003 eval {set sim_annotation {FTP starts at 0.1}}
+ 0.1 0 1 tcp 1000 ------- 0 0.0 1.0 0 0
- 0.1 0 1 tcp 1000 ------- 0 0.0 1.0 0 0
v 0.11 eval {set sim_annotation {Send Packet_0 : Initial window size = 1}}
v 0.34000000000000002 eval {set sim_annotation {Receive Ack_0}}
r 0.34 0 1 tcp 1000 ------- 0 0.0 1.0 0 0
+ 0.34 1 0 ack 40 ------- 0 1.0 0.0 0 1
- 0.34 1 0 ack 40 ------- 0 1.0 0.0 0 1
r 0.5416 1 0 ack 40 ------- 0 1.0 0.0 0 1
+ 0.5416 0 1 tcp 1000 ------- 0 0.0 1.0 1 2
- 0.5416 0 1 tcp 1000 ------- 0 0.0 1.0 1 2
+ 0.5416 0 1 tcp 1000 ------- 0 0.0 1.0 2 3
v 0.56000000000000005 eval {set sim_annotation {Send Packet_1,2 : Increase window size to 2}}
- 0.5816 0 1 tcp 1000 ------- 0 0.0 1.0 2 3
r 0.7816 0 1 tcp 1000 ------- 0 0.0 1.0 1 2
+ 0.7816 1 0 ack 40 ------- 0 1.0 0.0 1 4
- 0.7816 1 0 ack 40 ------- 0 1.0 0.0 1 4
v 0.79000000000000004 eval {set sim_annotation {Receive Ack_1,2}}
r 0.8216 0 1 tcp 1000 ------- 0 0.0 1.0 2 3
+ 0.8216 1 0 ack 40 ------- 0 1.0 0.0 2 5
- 0.8216 1 0 ack 40 ------- 0 1.0 0.0 2 5
r 0.9832 1 0 ack 40 ------- 0 1.0 0.0 1 4
+ 0.9832 0 1 tcp 1000 ------- 0 0.0 1.0 3 6
- 0.9832 0 1 tcp 1000 ------- 0 0.0 1.0 3 6
+ 0.9832 0 1 tcp 1000 ------- 0 0.0 1.0 4 7
v 0.98999999999999999 eval {set sim_annotation {Send Packet_3,4,5,6 : Increase window size to 4}}
r 1.0232 1 0 ack 40 ------- 0 1.0 0.0 2 5
+ 1.0232 0 1 tcp 1000 ------- 0 0.0 1.0 5 8
+ 1.0232 0 1 tcp 1000 ------- 0 0.0 1.0 6 9
- 1.0232 0 1 tcp 1000 ------- 0 0.0 1.0 4 7
- 1.0632 0 1 tcp 1000 ------- 0 0.0 1.0 5 8
- 1.1032 0 1 tcp 1000 ------- 0 0.0 1.0 6 9
r 1.2232 0 1 tcp 1000 ------- 0 0.0 1.0 3 6
+ 1.2232 1 0 ack 40 ------- 0 1.0 0.0 3 10
- 1.2232 1 0 ack 40 ------- 0 1.0 0.0 3 10
v 1.23 eval {set sim_annotation {Receive Ack_3,4,5,6  }}
r 1.2632 0 1 tcp 1000 ------- 0 0.0 1.0 4 7
+ 1.2632 1 0 ack 40 ------- 0 1.0 0.0 4 11
- 1.2632 1 0 ack 40 ------- 0 1.0 0.0 4 11
r 1.3032 0 1 tcp 1000 ------- 0 0.0 1.0 5 8
+ 1.3032 1 0 ack 40 ------- 0 1.0 0.0 5 12
- 1.3032 1 0 ack 40 ------- 0 1.0 0.0 5 12
r 1.3432 0 1 tcp 1000 ------- 0 0.0 1.0 6 9
+ 1.3432 1 0 ack 40 ------- 0 1.0 0.0 6 13
- 1.3432 1 0 ack 40 ------- 0 1.0 0.0 6 13
r 1.4248 1 0 ack 40 ------- 0 1.0 0.0 3 10
+ 1.4248 0 1 tcp 1000 ------- 0 0.0 1.0 7 14
- 1.4248 0 1 tcp 1000 ------- 0 0.0 1.0 7 14
+ 1.4248 0 1 tcp 1000 ------- 0 0.0 1.0 8 15
v 1.4299999999999999 eval {set sim_annotation {Send Packet_7,8,9,10,11,12,13,14 : Increase window size to 8}}
r 1.4648 1 0 ack 40 ------- 0 1.0 0.0 4 11
+ 1.4648 0 1 tcp 1000 ------- 0 0.0 1.0 9 16
+ 1.4648 0 1 tcp 1000 ------- 0 0.0 1.0 10 17
- 1.4648 0 1 tcp 1000 ------- 0 0.0 1.0 8 15
r 1.5048 1 0 ack 40 ------- 0 1.0 0.0 5 12
+ 1.5048 0 1 tcp 1000 ------- 0 0.0 1.0 11 18
+ 1.5048 0 1 tcp 1000 ------- 0 0.0 1.0 12 19
- 1.5048 0 1 tcp 1000 ------- 0 0.0 1.0 9 16
r 1.5448 1 0 ack 40 ------- 0 1.0 0.0 6 13
+ 1.5448 0 1 tcp 1000 ------- 0 0.0 1.0 13 20
+ 1.5448 0 1 tcp 1000 ------- 0 0.0 1.0 14 21
- 1.5448 0 1 tcp 1000 ------- 0 0.0 1.0 10 17
- 1.5848 0 1 tcp 1000 ------- 0 0.0 1.0 11 18
- 1.6248 0 1 tcp 1000 ------- 0 0.0 1.0 12 19
r 1.6648 0 1 tcp 1000 ------- 0 0.0 1.0 7 14
+ 1.6648 1 0 ack 40 ------- 0 1.0 0.0 7 22
- 1.6648 1 0 ack 40 ------- 0 1.0 0.0 7 22
- 1.6648 0 1 tcp 1000 ------- 0 0.0 1.0 13 20
v 1.6699999999999999 eval {set sim_annotation {Receive Ack_7,8,9,10,11,12,13,14}}
r 1.7048 0 1 tcp 1000 ------- 0 0.0 1.0 8 15
+ 1.7048 1 0 ack 40 ------- 0 1.0 0.0 8 23
- 1.7048 1 0 ack 40 ------- 0 1.0 0.0 8 23
- 1.7048 0 1 tcp 1000 ------- 0 0.0 1.0 14 21
r 1.7448 0 1 tcp 1000 ------- 0 0.0 1.0 9 16
+ 1.7448 1 0 ack 40 ------- 0 1.0 0.0 9 24
- 1.7448 1 0 ack 40 ------- 0 1.0 0.0 9 24
r 1.7848 0 1 tcp 1000 ------- 0 0.0 1.0 10 17
+ 1.7848 1 0 ack 40 ------- 0 1.0 0.0 10 25
- 1.7848 1 0 ack 40 ------- 0 1.0 0.0 10 25
r 1.8248 0 1 tcp 1000 ------- 0 0.0 1.0 11 18
+ 1.8248 1 0 ack 40 ------- 0 1.0 0.0 11 26
- 1.8248 1 0 ack 40 ------- 0 1.0 0.0 11 26
r 1.8648 0 1 tcp 1000 ------- 0 0.0 1.0 12 19
+ 1.8648 1 0 ack 40 ------- 0 1.0 0.0 12 27
- 1.8648 1 0 ack 40 ------- 0 1.0 0.0 12 27
r 1.8664 1 0 ack 40 ------- 0 1.0 0.0 7 22
+ 1.8664 0 1 tcp 1000 ------- 0 0.0 1.0 15 28
- 1.8664 0 1 tcp 1000 ------- 0 0.0 1.0 15 28
v 1.8799999999999999 eval {set sim_annotation {Send Packet_15}}
r 1.9048 0 1 tcp 1000 ------- 0 0.0 1.0 13 20
+ 1.9048 1 0 ack 40 ------- 0 1.0 0.0 13 29
- 1.9048 1 0 ack 40 ------- 0 1.0 0.0 13 29
r 1.9064 1 0 ack 40 ------- 0 1.0 0.0 8 23
+ 1.9064 0 1 tcp 1000 ------- 0 0.0 1.0 16 30
d 1.9064 0 1 tcp 1000 ------- 0 0.0 1.0 16 30
v 1.9199999999999999 eval {set sim_annotation {Packet_16 is lost}}
r 1.9448 0 1 tcp 1000 ------- 0 0.0 1.0 14 21
+ 1.9448 1 0 ack 40 ------- 0 1.0 0.0 14 31
- 1.9448 1 0 ack 40 ------- 0 1.0 0.0 14 31
r 1.9464 1 0 ack 40 ------- 0 1.0 0.0 9 24
+ 1.9464 0 1 tcp 1000 ------- 0 0.0 1.0 17 32
- 1.9464 0 1 tcp 1000 ------- 0 0.0 1.0 17 32
v 1.97 eval {set sim_annotation {Send Packet_17,18,19,20,21,22 : Keep maximum window size,8}}
r 1.9864 1 0 ack 40 ------- 0 1.0 0.0 10 25
+ 1.9864 0 1 tcp 1000 ------- 0 0.0 1.0 18 33
- 1.9864 0 1 tcp 1000 ------- 0 0.0 1.0 18 33
r 2.0264 1 0 ack 40 ------- 0 1.0 0.0 11 26
+ 2.0264 0 1 tcp 1000 ------- 0 0.0 1.0 19 34
- 2.0264 0 1 tcp 1000 ------- 0 0.0 1.0 19 34
r 2.0664 1 0 ack 40 ------- 0 1.0 0.0 12 27
+ 2.0664 0 1 tcp 1000 ------- 0 0.0 1.0 20 35
- 2.0664 0 1 tcp 1000 ------- 0 0.0 1.0 20 35
r 2.1064 0 1 tcp 1000 ------- 0 0.0 1.0 15 28
+ 2.1064 1 0 ack 40 ------- 0 1.0 0.0 15 36
- 2.1064 1 0 ack 40 ------- 0 1.0 0.0 15 36
r 2.1064 1 0 ack 40 ------- 0 1.0 0.0 13 29
+ 2.1064 0 1 tcp 1000 ------- 0 0.0 1.0 21 37
- 2.1064 0 1 tcp 1000 ------- 0 0.0 1.0 21 37
v 2.1099999999999999 eval {set sim_annotation {Receive Ack_15s}}
r 2.1464 1 0 ack 40 ------- 0 1.0 0.0 14 31
+ 2.1464 0 1 tcp 1000 ------- 0 0.0 1.0 22 38
- 2.1464 0 1 tcp 1000 ------- 0 0.0 1.0 22 38
r 2.1864 0 1 tcp 1000 ------- 0 0.0 1.0 17 32
+ 2.1864 1 0 ack 40 ------- 0 1.0 0.0 15 39
- 2.1864 1 0 ack 40 ------- 0 1.0 0.0 15 39
v 2.2000000000000002 eval {set sim_annotation {Receive 6 more Ack_15s}}
r 2.2264 0 1 tcp 1000 ------- 0 0.0 1.0 18 33
+ 2.2264 1 0 ack 40 ------- 0 1.0 0.0 15 40
- 2.2264 1 0 ack 40 ------- 0 1.0 0.0 15 40
r 2.2664 0 1 tcp 1000 ------- 0 0.0 1.0 19 34
+ 2.2664 1 0 ack 40 ------- 0 1.0 0.0 15 41
- 2.2664 1 0 ack 40 ------- 0 1.0 0.0 15 41
r 2.3064 0 1 tcp 1000 ------- 0 0.0 1.0 20 35
+ 2.3064 1 0 ack 40 ------- 0 1.0 0.0 15 42
- 2.3064 1 0 ack 40 ------- 0 1.0 0.0 15 42
r 2.308 1 0 ack 40 ------- 0 1.0 0.0 15 36
+ 2.308 0 1 tcp 1000 ------- 0 0.0 1.0 23 43
- 2.308 0 1 tcp 1000 ------- 0 0.0 1.0 23 43
v 2.3199999999999998 eval {set sim_annotation {Send Packet_23 : Send only 1 packet cause of window size}}
r 2.3464 0 1 tcp 1000 ------- 0 0.0 1.0 21 37
+ 2.3464 1 0 ack 40 ------- 0 1.0 0.0 15 44
- 2.3464 1 0 ack 40 ------- 0 1.0 0.0 15 44
r 2.3864 0 1 tcp 1000 ------- 0 0.0 1.0 22 38
+ 2.3864 1 0 ack 40 ------- 0 1.0 0.0 15 45
- 2.3864 1 0 ack 40 ------- 0 1.0 0.0 15 45
r 2.388 1 0 ack 40 ------- 0 1.0 0.0 15 39
r 2.428 1 0 ack 40 ------- 0 1.0 0.0 15 40
r 2.468 1 0 ack 40 ------- 0 1.0 0.0 15 41
+ 2.468 0 1 tcp 1000 ---A--- 0 0.0 1.0 16 46
- 2.468 0 1 tcp 1000 ---A--- 0 0.0 1.0 16 46
v 2.48 eval {set sim_annotation {Re-send lost Packet_16 : Set window size to 1 (Slow Start Restart)}}
r 2.508 1 0 ack 40 ------- 0 1.0 0.0 15 42
r 2.548 0 1 tcp 1000 ------- 0 0.0 1.0 23 43
+ 2.548 1 0 ack 40 ------- 0 1.0 0.0 15 47
- 2.548 1 0 ack 40 ------- 0 1.0 0.0 15 47
r 2.548 1 0 ack 40 ------- 0 1.0 0.0 15 44
v 2.5499999999999998 eval {set sim_annotation {Receive Ack_15}}
r 2.588 1 0 ack 40 ------- 0 1.0 0.0 15 45
r 2.708 0 1 tcp 1000 ---A--- 0 0.0 1.0 16 46
+ 2.708 1 0 ack 40 ------- 0 1.0 0.0 23 48
- 2.708 1 0 ack 40 ------- 0 1.0 0.0 23 48
v 2.7200000000000002 eval {set sim_annotation {Receive Ack_23}}
r 2.7496 1 0 ack 40 ------- 0 1.0 0.0 15 47
r 2.9096 1 0 ack 40 ------- 0 1.0 0.0 23 48
+ 2.9096 0 1 tcp 1000 ------- 0 0.0 1.0 24 49
- 2.9096 0 1 tcp 1000 ------- 0 0.0 1.0 24 49
+ 2.9096 0 1 tcp 1000 ------- 0 0.0 1.0 25 50
v 2.9100000000000001 eval {set sim_annotation {Send Packet_24,25 : Increase window size to 2}}
- 2.9496 0 1 tcp 1000 ------- 0 0.0 1.0 25 50
v 3.1000000000000001 eval {set sim_annotation {FTP stops}}
r 3.1496 0 1 tcp 1000 ------- 0 0.0 1.0 24 49
r 3.1896 0 1 tcp 1000 ------- 0 0.0 1.0 25 50
