v 0 eval {set sim_annotation {Stop and Wait with packet loss}}
v 0.050000000000000003 eval {set sim_annotation {FTP starts at 0.1}}
+ 0.1 0 2 tcp 1000 ------- 0 0.0 4.0 0 0
- 0.1 0 2 tcp 1000 ------- 0 0.0 4.0 0 0
+ 0.1 1 2 cbr 500 ------- 1 1.0 5.0 0 1
- 0.1 1 2 cbr 500 ------- 1 1.0 5.0 0 1
v 0.11 eval {set sim_annotation {Send Packet_0}}
+ 0.15 1 2 cbr 500 ------- 1 1.0 5.0 1 2
- 0.15 1 2 cbr 500 ------- 1 1.0 5.0 1 2
r 0.158 1 2 cbr 500 ------- 1 1.0 5.0 0 1
+ 0.158 2 3 cbr 500 ------- 1 1.0 5.0 0 1
- 0.158 2 3 cbr 500 ------- 1 1.0 5.0 0 1
r 0.166 0 2 tcp 1000 ------- 0 0.0 4.0 0 0
+ 0.166 2 3 tcp 1000 ------- 0 0.0 4.0 0 0
- 0.166 2 3 tcp 1000 ------- 0 0.0 4.0 0 0
+ 0.2 1 2 cbr 500 ------- 1 1.0 5.0 2 3
- 0.2 1 2 cbr 500 ------- 1 1.0 5.0 2 3
r 0.208 1 2 cbr 500 ------- 1 1.0 5.0 1 2
+ 0.208 2 3 cbr 500 ------- 1 1.0 5.0 1 2
- 0.208 2 3 cbr 500 ------- 1 1.0 5.0 1 2
r 0.216 2 3 cbr 500 ------- 1 1.0 5.0 0 1
+ 0.216 3 5 cbr 500 ------- 1 1.0 5.0 0 1
- 0.216 3 5 cbr 500 ------- 1 1.0 5.0 0 1
r 0.232 2 3 tcp 1000 ------- 0 0.0 4.0 0 0
+ 0.232 3 4 tcp 1000 ------- 0 0.0 4.0 0 0
- 0.232 3 4 tcp 1000 ------- 0 0.0 4.0 0 0
+ 0.25 1 2 cbr 500 ------- 1 1.0 5.0 3 4
- 0.25 1 2 cbr 500 ------- 1 1.0 5.0 3 4
r 0.258 1 2 cbr 500 ------- 1 1.0 5.0 2 3
+ 0.258 2 3 cbr 500 ------- 1 1.0 5.0 2 3
- 0.258 2 3 cbr 500 ------- 1 1.0 5.0 2 3
r 0.266 2 3 cbr 500 ------- 1 1.0 5.0 1 2
+ 0.266 3 5 cbr 500 ------- 1 1.0 5.0 1 2
- 0.266 3 5 cbr 500 ------- 1 1.0 5.0 1 2
r 0.274 3 5 cbr 500 ------- 1 1.0 5.0 0 1
r 0.298 3 4 tcp 1000 ------- 0 0.0 4.0 0 0
+ 0.298 4 3 ack 40 ------- 0 4.0 0.0 0 5
- 0.298 4 3 ack 40 ------- 0 4.0 0.0 0 5
v 0.29999999999999999 eval {set sim_annotation {Receive Ack_0}}
+ 0.3 1 2 cbr 500 ------- 1 1.0 5.0 4 6
- 0.3 1 2 cbr 500 ------- 1 1.0 5.0 4 6
r 0.308 1 2 cbr 500 ------- 1 1.0 5.0 3 4
+ 0.308 2 3 cbr 500 ------- 1 1.0 5.0 3 4
- 0.308 2 3 cbr 500 ------- 1 1.0 5.0 3 4
r 0.316 2 3 cbr 500 ------- 1 1.0 5.0 2 3
+ 0.316 3 5 cbr 500 ------- 1 1.0 5.0 2 3
- 0.316 3 5 cbr 500 ------- 1 1.0 5.0 2 3
r 0.324 3 5 cbr 500 ------- 1 1.0 5.0 1 2
r 0.34864 4 3 ack 40 ------- 0 4.0 0.0 0 5
+ 0.34864 3 2 ack 40 ------- 0 4.0 0.0 0 5
- 0.34864 3 2 ack 40 ------- 0 4.0 0.0 0 5
+ 0.35 1 2 cbr 500 ------- 1 1.0 5.0 5 7
- 0.35 1 2 cbr 500 ------- 1 1.0 5.0 5 7
r 0.358 1 2 cbr 500 ------- 1 1.0 5.0 4 6
+ 0.358 2 3 cbr 500 ------- 1 1.0 5.0 4 6
- 0.358 2 3 cbr 500 ------- 1 1.0 5.0 4 6
r 0.366 2 3 cbr 500 ------- 1 1.0 5.0 3 4
+ 0.366 3 5 cbr 500 ------- 1 1.0 5.0 3 4
- 0.366 3 5 cbr 500 ------- 1 1.0 5.0 3 4
r 0.374 3 5 cbr 500 ------- 1 1.0 5.0 2 3
r 0.39928 3 2 ack 40 ------- 0 4.0 0.0 0 5
+ 0.39928 2 0 ack 40 ------- 0 4.0 0.0 0 5
- 0.39928 2 0 ack 40 ------- 0 4.0 0.0 0 5
+ 0.4 1 2 cbr 500 ------- 1 1.0 5.0 6 8
- 0.4 1 2 cbr 500 ------- 1 1.0 5.0 6 8
r 0.408 1 2 cbr 500 ------- 1 1.0 5.0 5 7
+ 0.408 2 3 cbr 500 ------- 1 1.0 5.0 5 7
- 0.408 2 3 cbr 500 ------- 1 1.0 5.0 5 7
r 0.416 2 3 cbr 500 ------- 1 1.0 5.0 4 6
+ 0.416 3 5 cbr 500 ------- 1 1.0 5.0 4 6
- 0.416 3 5 cbr 500 ------- 1 1.0 5.0 4 6
r 0.424 3 5 cbr 500 ------- 1 1.0 5.0 3 4
r 0.44992 2 0 ack 40 ------- 0 4.0 0.0 0 5
+ 0.44992 0 2 tcp 1000 ------- 0 0.0 4.0 1 9
- 0.44992 0 2 tcp 1000 ------- 0 0.0 4.0 1 9
+ 0.45 1 2 cbr 500 ------- 1 1.0 5.0 7 10
- 0.45 1 2 cbr 500 ------- 1 1.0 5.0 7 10
v 0.45000000000000001 eval {set sim_annotation {Send Packet_1}}
r 0.458 1 2 cbr 500 ------- 1 1.0 5.0 6 8
+ 0.458 2 3 cbr 500 ------- 1 1.0 5.0 6 8
- 0.458 2 3 cbr 500 ------- 1 1.0 5.0 6 8
r 0.466 2 3 cbr 500 ------- 1 1.0 5.0 5 7
+ 0.466 3 5 cbr 500 ------- 1 1.0 5.0 5 7
- 0.466 3 5 cbr 500 ------- 1 1.0 5.0 5 7
r 0.474 3 5 cbr 500 ------- 1 1.0 5.0 4 6
+ 0.5 1 2 cbr 500 ------- 1 1.0 5.0 8 11
- 0.5 1 2 cbr 500 ------- 1 1.0 5.0 8 11
r 0.508 1 2 cbr 500 ------- 1 1.0 5.0 7 10
+ 0.508 2 3 cbr 500 ------- 1 1.0 5.0 7 10
- 0.508 2 3 cbr 500 ------- 1 1.0 5.0 7 10
r 0.51592 0 2 tcp 1000 ------- 0 0.0 4.0 1 9
+ 0.51592 2 3 tcp 1000 ------- 0 0.0 4.0 1 9
r 0.516 2 3 cbr 500 ------- 1 1.0 5.0 6 8
+ 0.516 3 5 cbr 500 ------- 1 1.0 5.0 6 8
- 0.516 3 5 cbr 500 ------- 1 1.0 5.0 6 8
- 0.516 2 3 tcp 1000 ------- 0 0.0 4.0 1 9
r 0.524 3 5 cbr 500 ------- 1 1.0 5.0 5 7
+ 0.55 1 2 cbr 500 ------- 1 1.0 5.0 9 12
- 0.55 1 2 cbr 500 ------- 1 1.0 5.0 9 12
r 0.558 1 2 cbr 500 ------- 1 1.0 5.0 8 11
+ 0.558 2 3 cbr 500 ------- 1 1.0 5.0 8 11
- 0.558 2 3 cbr 500 ------- 1 1.0 5.0 8 11
r 0.566 2 3 cbr 500 ------- 1 1.0 5.0 7 10
+ 0.566 3 5 cbr 500 ------- 1 1.0 5.0 7 10
- 0.566 3 5 cbr 500 ------- 1 1.0 5.0 7 10
r 0.574 3 5 cbr 500 ------- 1 1.0 5.0 6 8
r 0.582 2 3 tcp 1000 ------- 0 0.0 4.0 1 9
+ 0.582 3 4 tcp 1000 ------- 0 0.0 4.0 1 9
- 0.582 3 4 tcp 1000 ------- 0 0.0 4.0 1 9
+ 0.6 1 2 cbr 500 ------- 1 1.0 5.0 10 13
- 0.6 1 2 cbr 500 ------- 1 1.0 5.0 10 13
r 0.608 1 2 cbr 500 ------- 1 1.0 5.0 9 12
+ 0.608 2 3 cbr 500 ------- 1 1.0 5.0 9 12
- 0.608 2 3 cbr 500 ------- 1 1.0 5.0 9 12
r 0.616 2 3 cbr 500 ------- 1 1.0 5.0 8 11
+ 0.616 3 5 cbr 500 ------- 1 1.0 5.0 8 11
- 0.616 3 5 cbr 500 ------- 1 1.0 5.0 8 11
r 0.624 3 5 cbr 500 ------- 1 1.0 5.0 7 10
r 0.648 3 4 tcp 1000 ------- 0 0.0 4.0 1 9
+ 0.648 4 3 ack 40 ------- 0 4.0 0.0 1 14
- 0.648 4 3 ack 40 ------- 0 4.0 0.0 1 14
v 0.65000000000000002 eval {set sim_annotation {Receive Ack_1}}
+ 0.65 1 2 cbr 500 ------- 1 1.0 5.0 11 15
- 0.65 1 2 cbr 500 ------- 1 1.0 5.0 11 15
r 0.658 1 2 cbr 500 ------- 1 1.0 5.0 10 13
+ 0.658 2 3 cbr 500 ------- 1 1.0 5.0 10 13
- 0.658 2 3 cbr 500 ------- 1 1.0 5.0 10 13
r 0.666 2 3 cbr 500 ------- 1 1.0 5.0 9 12
+ 0.666 3 5 cbr 500 ------- 1 1.0 5.0 9 12
- 0.666 3 5 cbr 500 ------- 1 1.0 5.0 9 12
r 0.674 3 5 cbr 500 ------- 1 1.0 5.0 8 11
r 0.69864 4 3 ack 40 ------- 0 4.0 0.0 1 14
+ 0.69864 3 2 ack 40 ------- 0 4.0 0.0 1 14
- 0.69864 3 2 ack 40 ------- 0 4.0 0.0 1 14
+ 0.7 1 2 cbr 500 ------- 1 1.0 5.0 12 16
- 0.7 1 2 cbr 500 ------- 1 1.0 5.0 12 16
r 0.708 1 2 cbr 500 ------- 1 1.0 5.0 11 15
+ 0.708 2 3 cbr 500 ------- 1 1.0 5.0 11 15
- 0.708 2 3 cbr 500 ------- 1 1.0 5.0 11 15
r 0.716 2 3 cbr 500 ------- 1 1.0 5.0 10 13
+ 0.716 3 5 cbr 500 ------- 1 1.0 5.0 10 13
- 0.716 3 5 cbr 500 ------- 1 1.0 5.0 10 13
r 0.724 3 5 cbr 500 ------- 1 1.0 5.0 9 12
r 0.74928 3 2 ack 40 ------- 0 4.0 0.0 1 14
+ 0.74928 2 0 ack 40 ------- 0 4.0 0.0 1 14
- 0.74928 2 0 ack 40 ------- 0 4.0 0.0 1 14
+ 0.75 1 2 cbr 500 ------- 1 1.0 5.0 13 17
- 0.75 1 2 cbr 500 ------- 1 1.0 5.0 13 17
r 0.758 1 2 cbr 500 ------- 1 1.0 5.0 12 16
+ 0.758 2 3 cbr 500 ------- 1 1.0 5.0 12 16
- 0.758 2 3 cbr 500 ------- 1 1.0 5.0 12 16
r 0.766 2 3 cbr 500 ------- 1 1.0 5.0 11 15
+ 0.766 3 5 cbr 500 ------- 1 1.0 5.0 11 15
- 0.766 3 5 cbr 500 ------- 1 1.0 5.0 11 15
r 0.774 3 5 cbr 500 ------- 1 1.0 5.0 10 13
r 0.79992 2 0 ack 40 ------- 0 4.0 0.0 1 14
+ 0.79992 0 2 tcp 1000 ------- 0 0.0 4.0 2 18
- 0.79992 0 2 tcp 1000 ------- 0 0.0 4.0 2 18
v 0.80000000000000004 eval {set sim_annotation {Send Packet_2}}
+ 0.8 1 2 cbr 500 ------- 1 1.0 5.0 14 19
- 0.8 1 2 cbr 500 ------- 1 1.0 5.0 14 19
r 0.808 1 2 cbr 500 ------- 1 1.0 5.0 13 17
+ 0.808 2 3 cbr 500 ------- 1 1.0 5.0 13 17
- 0.808 2 3 cbr 500 ------- 1 1.0 5.0 13 17
r 0.816 2 3 cbr 500 ------- 1 1.0 5.0 12 16
+ 0.816 3 5 cbr 500 ------- 1 1.0 5.0 12 16
- 0.816 3 5 cbr 500 ------- 1 1.0 5.0 12 16
r 0.824 3 5 cbr 500 ------- 1 1.0 5.0 11 15
+ 0.85 1 2 cbr 500 ------- 1 1.0 5.0 15 20
- 0.85 1 2 cbr 500 ------- 1 1.0 5.0 15 20
r 0.858 1 2 cbr 500 ------- 1 1.0 5.0 14 19
+ 0.858 2 3 cbr 500 ------- 1 1.0 5.0 14 19
- 0.858 2 3 cbr 500 ------- 1 1.0 5.0 14 19
r 0.86592 0 2 tcp 1000 ------- 0 0.0 4.0 2 18
+ 0.86592 2 3 tcp 1000 ------- 0 0.0 4.0 2 18
r 0.866 2 3 cbr 500 ------- 1 1.0 5.0 13 17
+ 0.866 3 5 cbr 500 ------- 1 1.0 5.0 13 17
- 0.866 3 5 cbr 500 ------- 1 1.0 5.0 13 17
- 0.866 2 3 tcp 1000 ------- 0 0.0 4.0 2 18
r 0.874 3 5 cbr 500 ------- 1 1.0 5.0 12 16
+ 0.9 1 2 cbr 500 ------- 1 1.0 5.0 16 21
- 0.9 1 2 cbr 500 ------- 1 1.0 5.0 16 21
r 0.908 1 2 cbr 500 ------- 1 1.0 5.0 15 20
+ 0.908 2 3 cbr 500 ------- 1 1.0 5.0 15 20
- 0.908 2 3 cbr 500 ------- 1 1.0 5.0 15 20
r 0.916 2 3 cbr 500 ------- 1 1.0 5.0 14 19
+ 0.916 3 5 cbr 500 ------- 1 1.0 5.0 14 19
- 0.916 3 5 cbr 500 ------- 1 1.0 5.0 14 19
r 0.924 3 5 cbr 500 ------- 1 1.0 5.0 13 17
r 0.932 2 3 tcp 1000 ------- 0 0.0 4.0 2 18
+ 0.932 3 4 tcp 1000 ------- 0 0.0 4.0 2 18
- 0.932 3 4 tcp 1000 ------- 0 0.0 4.0 2 18
+ 0.95 1 2 cbr 500 ------- 1 1.0 5.0 17 22
- 0.95 1 2 cbr 500 ------- 1 1.0 5.0 17 22
r 0.958 1 2 cbr 500 ------- 1 1.0 5.0 16 21
+ 0.958 2 3 cbr 500 ------- 1 1.0 5.0 16 21
- 0.958 2 3 cbr 500 ------- 1 1.0 5.0 16 21
r 0.966 2 3 cbr 500 ------- 1 1.0 5.0 15 20
+ 0.966 3 5 cbr 500 ------- 1 1.0 5.0 15 20
- 0.966 3 5 cbr 500 ------- 1 1.0 5.0 15 20
r 0.974 3 5 cbr 500 ------- 1 1.0 5.0 14 19
r 0.998 3 4 tcp 1000 ------- 0 0.0 4.0 2 18
+ 0.998 4 3 ack 40 ------- 0 4.0 0.0 2 23
- 0.998 4 3 ack 40 ------- 0 4.0 0.0 2 23
v 1 eval {set sim_annotation {Receive Ack_2}}
+ 1 1 2 cbr 500 ------- 1 1.0 5.0 18 24
- 1 1 2 cbr 500 ------- 1 1.0 5.0 18 24
r 1.008 1 2 cbr 500 ------- 1 1.0 5.0 17 22
+ 1.008 2 3 cbr 500 ------- 1 1.0 5.0 17 22
- 1.008 2 3 cbr 500 ------- 1 1.0 5.0 17 22
r 1.016 2 3 cbr 500 ------- 1 1.0 5.0 16 21
+ 1.016 3 5 cbr 500 ------- 1 1.0 5.0 16 21
- 1.016 3 5 cbr 500 ------- 1 1.0 5.0 16 21
r 1.024 3 5 cbr 500 ------- 1 1.0 5.0 15 20
r 1.04864 4 3 ack 40 ------- 0 4.0 0.0 2 23
+ 1.04864 3 2 ack 40 ------- 0 4.0 0.0 2 23
- 1.04864 3 2 ack 40 ------- 0 4.0 0.0 2 23
+ 1.05 1 2 cbr 500 ------- 1 1.0 5.0 19 25
- 1.05 1 2 cbr 500 ------- 1 1.0 5.0 19 25
r 1.058 1 2 cbr 500 ------- 1 1.0 5.0 18 24
+ 1.058 2 3 cbr 500 ------- 1 1.0 5.0 18 24
- 1.058 2 3 cbr 500 ------- 1 1.0 5.0 18 24
r 1.066 2 3 cbr 500 ------- 1 1.0 5.0 17 22
+ 1.066 3 5 cbr 500 ------- 1 1.0 5.0 17 22
- 1.066 3 5 cbr 500 ------- 1 1.0 5.0 17 22
r 1.074 3 5 cbr 500 ------- 1 1.0 5.0 16 21
r 1.09928 3 2 ack 40 ------- 0 4.0 0.0 2 23
+ 1.09928 2 0 ack 40 ------- 0 4.0 0.0 2 23
- 1.09928 2 0 ack 40 ------- 0 4.0 0.0 2 23
+ 1.1 1 2 cbr 500 ------- 1 1.0 5.0 20 26
- 1.1 1 2 cbr 500 ------- 1 1.0 5.0 20 26
r 1.108 1 2 cbr 500 ------- 1 1.0 5.0 19 25
+ 1.108 2 3 cbr 500 ------- 1 1.0 5.0 19 25
- 1.108 2 3 cbr 500 ------- 1 1.0 5.0 19 25
r 1.116 2 3 cbr 500 ------- 1 1.0 5.0 18 24
+ 1.116 3 5 cbr 500 ------- 1 1.0 5.0 18 24
- 1.116 3 5 cbr 500 ------- 1 1.0 5.0 18 24
r 1.124 3 5 cbr 500 ------- 1 1.0 5.0 17 22
r 1.14992 2 0 ack 40 ------- 0 4.0 0.0 2 23
+ 1.14992 0 2 tcp 1000 ------- 0 0.0 4.0 3 27
- 1.14992 0 2 tcp 1000 ------- 0 0.0 4.0 3 27
v 1.1499999999999999 eval {set sim_annotation {Send Packet_3}}
+ 1.15 1 2 cbr 500 ------- 1 1.0 5.0 21 28
- 1.15 1 2 cbr 500 ------- 1 1.0 5.0 21 28
r 1.158 1 2 cbr 500 ------- 1 1.0 5.0 20 26
+ 1.158 2 3 cbr 500 ------- 1 1.0 5.0 20 26
- 1.158 2 3 cbr 500 ------- 1 1.0 5.0 20 26
r 1.166 2 3 cbr 500 ------- 1 1.0 5.0 19 25
+ 1.166 3 5 cbr 500 ------- 1 1.0 5.0 19 25
- 1.166 3 5 cbr 500 ------- 1 1.0 5.0 19 25
r 1.174 3 5 cbr 500 ------- 1 1.0 5.0 18 24
+ 1.2 1 2 cbr 500 ------- 1 1.0 5.0 22 29
- 1.2 1 2 cbr 500 ------- 1 1.0 5.0 22 29
r 1.208 1 2 cbr 500 ------- 1 1.0 5.0 21 28
+ 1.208 2 3 cbr 500 ------- 1 1.0 5.0 21 28
- 1.208 2 3 cbr 500 ------- 1 1.0 5.0 21 28
r 1.21592 0 2 tcp 1000 ------- 0 0.0 4.0 3 27
+ 1.21592 2 3 tcp 1000 ------- 0 0.0 4.0 3 27
r 1.216 2 3 cbr 500 ------- 1 1.0 5.0 20 26
+ 1.216 3 5 cbr 500 ------- 1 1.0 5.0 20 26
- 1.216 3 5 cbr 500 ------- 1 1.0 5.0 20 26
- 1.216 2 3 tcp 1000 ------- 0 0.0 4.0 3 27
r 1.224 3 5 cbr 500 ------- 1 1.0 5.0 19 25
+ 1.25 1 2 cbr 500 ------- 1 1.0 5.0 23 30
- 1.25 1 2 cbr 500 ------- 1 1.0 5.0 23 30
r 1.258 1 2 cbr 500 ------- 1 1.0 5.0 22 29
+ 1.258 2 3 cbr 500 ------- 1 1.0 5.0 22 29
- 1.258 2 3 cbr 500 ------- 1 1.0 5.0 22 29
r 1.266 2 3 cbr 500 ------- 1 1.0 5.0 21 28
+ 1.266 3 5 cbr 500 ------- 1 1.0 5.0 21 28
- 1.266 3 5 cbr 500 ------- 1 1.0 5.0 21 28
r 1.274 3 5 cbr 500 ------- 1 1.0 5.0 20 26
r 1.282 2 3 tcp 1000 ------- 0 0.0 4.0 3 27
+ 1.282 3 4 tcp 1000 ------- 0 0.0 4.0 3 27
- 1.282 3 4 tcp 1000 ------- 0 0.0 4.0 3 27
+ 1.3 1 2 cbr 500 ------- 1 1.0 5.0 24 31
- 1.3 1 2 cbr 500 ------- 1 1.0 5.0 24 31
r 1.308 1 2 cbr 500 ------- 1 1.0 5.0 23 30
+ 1.308 2 3 cbr 500 ------- 1 1.0 5.0 23 30
- 1.308 2 3 cbr 500 ------- 1 1.0 5.0 23 30
r 1.316 2 3 cbr 500 ------- 1 1.0 5.0 22 29
+ 1.316 3 5 cbr 500 ------- 1 1.0 5.0 22 29
- 1.316 3 5 cbr 500 ------- 1 1.0 5.0 22 29
r 1.324 3 5 cbr 500 ------- 1 1.0 5.0 21 28
r 1.348 3 4 tcp 1000 ------- 0 0.0 4.0 3 27
+ 1.348 4 3 ack 40 ------- 0 4.0 0.0 3 32
- 1.348 4 3 ack 40 ------- 0 4.0 0.0 3 32
v 1.3500000000000001 eval {set sim_annotation {Receive Ack_3}}
+ 1.35 1 2 cbr 500 ------- 1 1.0 5.0 25 33
- 1.35 1 2 cbr 500 ------- 1 1.0 5.0 25 33
r 1.358 1 2 cbr 500 ------- 1 1.0 5.0 24 31
+ 1.358 2 3 cbr 500 ------- 1 1.0 5.0 24 31
- 1.358 2 3 cbr 500 ------- 1 1.0 5.0 24 31
r 1.366 2 3 cbr 500 ------- 1 1.0 5.0 23 30
+ 1.366 3 5 cbr 500 ------- 1 1.0 5.0 23 30
- 1.366 3 5 cbr 500 ------- 1 1.0 5.0 23 30
r 1.374 3 5 cbr 500 ------- 1 1.0 5.0 22 29
r 1.39864 4 3 ack 40 ------- 0 4.0 0.0 3 32
+ 1.39864 3 2 ack 40 ------- 0 4.0 0.0 3 32
- 1.39864 3 2 ack 40 ------- 0 4.0 0.0 3 32
+ 1.4 1 2 cbr 500 ------- 1 1.0 5.0 26 34
- 1.4 1 2 cbr 500 ------- 1 1.0 5.0 26 34
r 1.408 1 2 cbr 500 ------- 1 1.0 5.0 25 33
+ 1.408 2 3 cbr 500 ------- 1 1.0 5.0 25 33
- 1.408 2 3 cbr 500 ------- 1 1.0 5.0 25 33
r 1.416 2 3 cbr 500 ------- 1 1.0 5.0 24 31
+ 1.416 3 5 cbr 500 ------- 1 1.0 5.0 24 31
- 1.416 3 5 cbr 500 ------- 1 1.0 5.0 24 31
r 1.424 3 5 cbr 500 ------- 1 1.0 5.0 23 30
r 1.44928 3 2 ack 40 ------- 0 4.0 0.0 3 32
+ 1.44928 2 0 ack 40 ------- 0 4.0 0.0 3 32
- 1.44928 2 0 ack 40 ------- 0 4.0 0.0 3 32
+ 1.45 1 2 cbr 500 ------- 1 1.0 5.0 27 35
- 1.45 1 2 cbr 500 ------- 1 1.0 5.0 27 35
r 1.458 1 2 cbr 500 ------- 1 1.0 5.0 26 34
+ 1.458 2 3 cbr 500 ------- 1 1.0 5.0 26 34
- 1.458 2 3 cbr 500 ------- 1 1.0 5.0 26 34
r 1.466 2 3 cbr 500 ------- 1 1.0 5.0 25 33
+ 1.466 3 5 cbr 500 ------- 1 1.0 5.0 25 33
- 1.466 3 5 cbr 500 ------- 1 1.0 5.0 25 33
r 1.474 3 5 cbr 500 ------- 1 1.0 5.0 24 31
r 1.49992 2 0 ack 40 ------- 0 4.0 0.0 3 32
+ 1.49992 0 2 tcp 1000 ------- 0 0.0 4.0 4 36
- 1.49992 0 2 tcp 1000 ------- 0 0.0 4.0 4 36
v 1.5 eval {set sim_annotation {Send Packet_4}}
+ 1.5 1 2 cbr 500 ------- 1 1.0 5.0 28 37
- 1.5 1 2 cbr 500 ------- 1 1.0 5.0 28 37
r 1.508 1 2 cbr 500 ------- 1 1.0 5.0 27 35
+ 1.508 2 3 cbr 500 ------- 1 1.0 5.0 27 35
- 1.508 2 3 cbr 500 ------- 1 1.0 5.0 27 35
r 1.516 2 3 cbr 500 ------- 1 1.0 5.0 26 34
+ 1.516 3 5 cbr 500 ------- 1 1.0 5.0 26 34
- 1.516 3 5 cbr 500 ------- 1 1.0 5.0 26 34
r 1.524 3 5 cbr 500 ------- 1 1.0 5.0 25 33
+ 1.55 1 2 cbr 500 ------- 1 1.0 5.0 29 38
- 1.55 1 2 cbr 500 ------- 1 1.0 5.0 29 38
r 1.558 1 2 cbr 500 ------- 1 1.0 5.0 28 37
+ 1.558 2 3 cbr 500 ------- 1 1.0 5.0 28 37
- 1.558 2 3 cbr 500 ------- 1 1.0 5.0 28 37
r 1.56592 0 2 tcp 1000 ------- 0 0.0 4.0 4 36
+ 1.56592 2 3 tcp 1000 ------- 0 0.0 4.0 4 36
r 1.566 2 3 cbr 500 ------- 1 1.0 5.0 27 35
+ 1.566 3 5 cbr 500 ------- 1 1.0 5.0 27 35
- 1.566 3 5 cbr 500 ------- 1 1.0 5.0 27 35
- 1.566 2 3 tcp 1000 ------- 0 0.0 4.0 4 36
r 1.574 3 5 cbr 500 ------- 1 1.0 5.0 26 34
+ 1.6 1 2 cbr 500 ------- 1 1.0 5.0 30 39
- 1.6 1 2 cbr 500 ------- 1 1.0 5.0 30 39
r 1.608 1 2 cbr 500 ------- 1 1.0 5.0 29 38
+ 1.608 2 3 cbr 500 ------- 1 1.0 5.0 29 38
- 1.608 2 3 cbr 500 ------- 1 1.0 5.0 29 38
r 1.616 2 3 cbr 500 ------- 1 1.0 5.0 28 37
+ 1.616 3 5 cbr 500 ------- 1 1.0 5.0 28 37
- 1.616 3 5 cbr 500 ------- 1 1.0 5.0 28 37
r 1.624 3 5 cbr 500 ------- 1 1.0 5.0 27 35
r 1.632 2 3 tcp 1000 ------- 0 0.0 4.0 4 36
+ 1.632 3 4 tcp 1000 ------- 0 0.0 4.0 4 36
- 1.632 3 4 tcp 1000 ------- 0 0.0 4.0 4 36
+ 1.65 1 2 cbr 500 ------- 1 1.0 5.0 31 40
- 1.65 1 2 cbr 500 ------- 1 1.0 5.0 31 40
r 1.658 1 2 cbr 500 ------- 1 1.0 5.0 30 39
+ 1.658 2 3 cbr 500 ------- 1 1.0 5.0 30 39
- 1.658 2 3 cbr 500 ------- 1 1.0 5.0 30 39
r 1.666 2 3 cbr 500 ------- 1 1.0 5.0 29 38
+ 1.666 3 5 cbr 500 ------- 1 1.0 5.0 29 38
- 1.666 3 5 cbr 500 ------- 1 1.0 5.0 29 38
r 1.674 3 5 cbr 500 ------- 1 1.0 5.0 28 37
r 1.698 3 4 tcp 1000 ------- 0 0.0 4.0 4 36
+ 1.698 4 3 ack 40 ------- 0 4.0 0.0 4 41
- 1.698 4 3 ack 40 ------- 0 4.0 0.0 4 41
v 1.7 eval {set sim_annotation {Receive Ack_4}}
r 1.708 1 2 cbr 500 ------- 1 1.0 5.0 31 40
+ 1.708 2 3 cbr 500 ------- 1 1.0 5.0 31 40
- 1.708 2 3 cbr 500 ------- 1 1.0 5.0 31 40
r 1.716 2 3 cbr 500 ------- 1 1.0 5.0 30 39
+ 1.716 3 5 cbr 500 ------- 1 1.0 5.0 30 39
- 1.716 3 5 cbr 500 ------- 1 1.0 5.0 30 39
r 1.724 3 5 cbr 500 ------- 1 1.0 5.0 29 38
r 1.74864 4 3 ack 40 ------- 0 4.0 0.0 4 41
+ 1.74864 3 2 ack 40 ------- 0 4.0 0.0 4 41
- 1.74864 3 2 ack 40 ------- 0 4.0 0.0 4 41
r 1.766 2 3 cbr 500 ------- 1 1.0 5.0 31 40
+ 1.766 3 5 cbr 500 ------- 1 1.0 5.0 31 40
- 1.766 3 5 cbr 500 ------- 1 1.0 5.0 31 40
r 1.774 3 5 cbr 500 ------- 1 1.0 5.0 30 39
r 1.79928 3 2 ack 40 ------- 0 4.0 0.0 4 41
+ 1.79928 2 0 ack 40 ------- 0 4.0 0.0 4 41
- 1.79928 2 0 ack 40 ------- 0 4.0 0.0 4 41
v 1.8 eval {set sim_annotation {FTP stops}}
r 1.824 3 5 cbr 500 ------- 1 1.0 5.0 31 40
r 1.84992 2 0 ack 40 ------- 0 4.0 0.0 4 41
