V -t * -v 1.0a5 -a 1 -c 1 -F 1 -M 2
c -t * -i 0 -n black
N -t * -S 0 -n {TCP session  between node 0.0 and node 4.0} -p TCP  -m {}
N -t * -S 0 -h 6
N -t * -F 0 -M 0 -n tcp
N -t * -F 0 -M 1 -n ack
A -t * -n 1 -p 0 -o 255 -c 15 -a 1
A -t * -h 1 -m 127 -s 8
n -t * -a 4 -s 4 -S UP -v circle -c black
n -t * -a 0 -s 0 -S UP -v circle -c black
n -t * -a 5 -s 5 -S UP -v circle -c red
n -t * -a 1 -s 1 -S UP -v circle -c red
n -t * -a 2 -s 2 -S UP -v rectangular -c blue
n -t * -a 3 -s 3 -S UP -v rectangular -c blue
l -t * -s 0 -d 2 -S UP -r 500000 -D 0.050000000000000003 -c black -o right-down
l -t * -s 1 -d 2 -S UP -r 500000 -D 0.050000000000000003 -c black -o right-up
l -t * -s 2 -d 3 -S UP -r 500000 -D 0.050000000000000003 -c black -o right
l -t * -s 3 -d 4 -S UP -r 500000 -D 0.050000000000000003 -c black -o right-up
l -t * -s 3 -d 5 -S UP -r 500000 -D 0.050000000000000003 -c black -o right-down
q -t * -s 3 -d 2 -a 0.5
q -t * -s 2 -d 3 -a 0.5
a -t 0.00000000000000000 -s 0 -d 4 -n tcp
f -t 0.00000000000000000 -s 0 -d 4 -n cwnd_ -a tcp -v 1.000000 -T v
v -t 0.00000000000000000 monitor_agent 0 tcp
n -t 0 -s 0 -S DLABEL -l Stop&Wait -L ""
n -t 0 -s 1 -S DLABEL -l CBR -L ""
n -t 0 -s 4 -S DLABEL -l Stop&Wait -L ""
n -t 0 -s 5 -S DLABEL -l CBR -L ""
v -t 0 sim_annotation 0 1 Stop and Wait with packet loss
v -t 0.050000000000000003 sim_annotation 0.050000000000000003 2 FTP starts at 0.1
+ -t 0.1 -s 0 -d 2 -p tcp -e 1000 -c 0 -i 0 -a 0 -S 0 -f 0 -m 0 -y {0 0}
- -t 0.1 -s 0 -d 2 -p tcp -e 1000 -c 0 -i 0 -a 0 -S 0 -y {0 0}
h -t 0.1 -s 0 -d 2 -p tcp -e 1000 -c 0 -i 0 -a 0 -S 0 -y {-1 -1}
+ -t 0.1 -s 1 -d 2 -p cbr -e 210 -c 1 -i 1 -a 1
- -t 0.1 -s 1 -d 2 -p cbr -e 210 -c 1 -i 1 -a 1
h -t 0.1 -s 1 -d 2 -p cbr -e 210 -c 1 -i 1 -a 1
+ -t 0.10375 -s 1 -d 2 -p cbr -e 210 -c 1 -i 2 -a 1
- -t 0.10375 -s 1 -d 2 -p cbr -e 210 -c 1 -i 2 -a 1
h -t 0.10375 -s 1 -d 2 -p cbr -e 210 -c 1 -i 2 -a 1
+ -t 0.1075 -s 1 -d 2 -p cbr -e 210 -c 1 -i 3 -a 1
- -t 0.1075 -s 1 -d 2 -p cbr -e 210 -c 1 -i 3 -a 1
h -t 0.1075 -s 1 -d 2 -p cbr -e 210 -c 1 -i 3 -a 1
v -t 0.11 sim_annotation 0.11 3 Send Packet_0
+ -t 0.11125 -s 1 -d 2 -p cbr -e 210 -c 1 -i 4 -a 1
- -t 0.11125 -s 1 -d 2 -p cbr -e 210 -c 1 -i 4 -a 1
h -t 0.11125 -s 1 -d 2 -p cbr -e 210 -c 1 -i 4 -a 1
+ -t 0.115 -s 1 -d 2 -p cbr -e 210 -c 1 -i 5 -a 1
- -t 0.115 -s 1 -d 2 -p cbr -e 210 -c 1 -i 5 -a 1
h -t 0.115 -s 1 -d 2 -p cbr -e 210 -c 1 -i 5 -a 1
+ -t 0.11875 -s 1 -d 2 -p cbr -e 210 -c 1 -i 6 -a 1
- -t 0.11875 -s 1 -d 2 -p cbr -e 210 -c 1 -i 6 -a 1
h -t 0.11875 -s 1 -d 2 -p cbr -e 210 -c 1 -i 6 -a 1
+ -t 0.1225 -s 1 -d 2 -p cbr -e 210 -c 1 -i 7 -a 1
- -t 0.1225 -s 1 -d 2 -p cbr -e 210 -c 1 -i 7 -a 1
h -t 0.1225 -s 1 -d 2 -p cbr -e 210 -c 1 -i 7 -a 1
+ -t 0.12625 -s 1 -d 2 -p cbr -e 210 -c 1 -i 8 -a 1
- -t 0.12625 -s 1 -d 2 -p cbr -e 210 -c 1 -i 8 -a 1
h -t 0.12625 -s 1 -d 2 -p cbr -e 210 -c 1 -i 8 -a 1
+ -t 0.13 -s 1 -d 2 -p cbr -e 210 -c 1 -i 9 -a 1
- -t 0.13 -s 1 -d 2 -p cbr -e 210 -c 1 -i 9 -a 1
h -t 0.13 -s 1 -d 2 -p cbr -e 210 -c 1 -i 9 -a 1
+ -t 0.13375 -s 1 -d 2 -p cbr -e 210 -c 1 -i 10 -a 1
- -t 0.13375 -s 1 -d 2 -p cbr -e 210 -c 1 -i 10 -a 1
h -t 0.13375 -s 1 -d 2 -p cbr -e 210 -c 1 -i 10 -a 1
+ -t 0.1375 -s 1 -d 2 -p cbr -e 210 -c 1 -i 11 -a 1
- -t 0.1375 -s 1 -d 2 -p cbr -e 210 -c 1 -i 11 -a 1
h -t 0.1375 -s 1 -d 2 -p cbr -e 210 -c 1 -i 11 -a 1
+ -t 0.14125 -s 1 -d 2 -p cbr -e 210 -c 1 -i 12 -a 1
- -t 0.14125 -s 1 -d 2 -p cbr -e 210 -c 1 -i 12 -a 1
h -t 0.14125 -s 1 -d 2 -p cbr -e 210 -c 1 -i 12 -a 1
+ -t 0.145 -s 1 -d 2 -p cbr -e 210 -c 1 -i 13 -a 1
- -t 0.145 -s 1 -d 2 -p cbr -e 210 -c 1 -i 13 -a 1
h -t 0.145 -s 1 -d 2 -p cbr -e 210 -c 1 -i 13 -a 1
+ -t 0.14875 -s 1 -d 2 -p cbr -e 210 -c 1 -i 14 -a 1
- -t 0.14875 -s 1 -d 2 -p cbr -e 210 -c 1 -i 14 -a 1
h -t 0.14875 -s 1 -d 2 -p cbr -e 210 -c 1 -i 14 -a 1
+ -t 0.1525 -s 1 -d 2 -p cbr -e 210 -c 1 -i 15 -a 1
- -t 0.1525 -s 1 -d 2 -p cbr -e 210 -c 1 -i 15 -a 1
h -t 0.1525 -s 1 -d 2 -p cbr -e 210 -c 1 -i 15 -a 1
r -t 0.15336 -s 1 -d 2 -p cbr -e 210 -c 1 -i 1 -a 1
+ -t 0.15336 -s 2 -d 3 -p cbr -e 210 -c 1 -i 1 -a 1
- -t 0.15336 -s 2 -d 3 -p cbr -e 210 -c 1 -i 1 -a 1
h -t 0.15336 -s 2 -d 3 -p cbr -e 210 -c 1 -i 1 -a 1
+ -t 0.15625 -s 1 -d 2 -p cbr -e 210 -c 1 -i 16 -a 1
- -t 0.15625 -s 1 -d 2 -p cbr -e 210 -c 1 -i 16 -a 1
h -t 0.15625 -s 1 -d 2 -p cbr -e 210 -c 1 -i 16 -a 1
r -t 0.15711 -s 1 -d 2 -p cbr -e 210 -c 1 -i 2 -a 1
+ -t 0.15711 -s 2 -d 3 -p cbr -e 210 -c 1 -i 2 -a 1
- -t 0.15711 -s 2 -d 3 -p cbr -e 210 -c 1 -i 2 -a 1
h -t 0.15711 -s 2 -d 3 -p cbr -e 210 -c 1 -i 2 -a 1
+ -t 0.16 -s 1 -d 2 -p cbr -e 210 -c 1 -i 17 -a 1
- -t 0.16 -s 1 -d 2 -p cbr -e 210 -c 1 -i 17 -a 1
h -t 0.16 -s 1 -d 2 -p cbr -e 210 -c 1 -i 17 -a 1
r -t 0.16086 -s 1 -d 2 -p cbr -e 210 -c 1 -i 3 -a 1
+ -t 0.16086 -s 2 -d 3 -p cbr -e 210 -c 1 -i 3 -a 1
- -t 0.16086 -s 2 -d 3 -p cbr -e 210 -c 1 -i 3 -a 1
h -t 0.16086 -s 2 -d 3 -p cbr -e 210 -c 1 -i 3 -a 1
+ -t 0.16375 -s 1 -d 2 -p cbr -e 210 -c 1 -i 18 -a 1
- -t 0.16375 -s 1 -d 2 -p cbr -e 210 -c 1 -i 18 -a 1
h -t 0.16375 -s 1 -d 2 -p cbr -e 210 -c 1 -i 18 -a 1
r -t 0.16461 -s 1 -d 2 -p cbr -e 210 -c 1 -i 4 -a 1
+ -t 0.16461 -s 2 -d 3 -p cbr -e 210 -c 1 -i 4 -a 1
- -t 0.16461 -s 2 -d 3 -p cbr -e 210 -c 1 -i 4 -a 1
h -t 0.16461 -s 2 -d 3 -p cbr -e 210 -c 1 -i 4 -a 1
r -t 0.166 -s 0 -d 2 -p tcp -e 1000 -c 0 -i 0 -a 0 -S 0 -y {0 0}
+ -t 0.166 -s 2 -d 3 -p tcp -e 1000 -c 0 -i 0 -a 0 -S 0 -y {0 0}
+ -t 0.1675 -s 1 -d 2 -p cbr -e 210 -c 1 -i 19 -a 1
- -t 0.1675 -s 1 -d 2 -p cbr -e 210 -c 1 -i 19 -a 1
h -t 0.1675 -s 1 -d 2 -p cbr -e 210 -c 1 -i 19 -a 1
- -t 0.16797 -s 2 -d 3 -p tcp -e 1000 -c 0 -i 0 -a 0 -S 0 -y {0 0}
h -t 0.16797 -s 2 -d 3 -p tcp -e 1000 -c 0 -i 0 -a 0 -S 0 -y {-1 -1}
r -t 0.16836 -s 1 -d 2 -p cbr -e 210 -c 1 -i 5 -a 1
+ -t 0.16836 -s 2 -d 3 -p cbr -e 210 -c 1 -i 5 -a 1
+ -t 0.17125 -s 1 -d 2 -p cbr -e 210 -c 1 -i 20 -a 1
- -t 0.17125 -s 1 -d 2 -p cbr -e 210 -c 1 -i 20 -a 1
h -t 0.17125 -s 1 -d 2 -p cbr -e 210 -c 1 -i 20 -a 1
r -t 0.17211 -s 1 -d 2 -p cbr -e 210 -c 1 -i 6 -a 1
+ -t 0.17211 -s 2 -d 3 -p cbr -e 210 -c 1 -i 6 -a 1
d -t 0.17211 -s 2 -d 3 -p cbr -e 210 -c 1 -i 6 -a 1
+ -t 0.175 -s 1 -d 2 -p cbr -e 210 -c 1 -i 21 -a 1
- -t 0.175 -s 1 -d 2 -p cbr -e 210 -c 1 -i 21 -a 1
h -t 0.175 -s 1 -d 2 -p cbr -e 210 -c 1 -i 21 -a 1
r -t 0.17586 -s 1 -d 2 -p cbr -e 210 -c 1 -i 7 -a 1
+ -t 0.17586 -s 2 -d 3 -p cbr -e 210 -c 1 -i 7 -a 1
d -t 0.17586 -s 2 -d 3 -p cbr -e 210 -c 1 -i 7 -a 1
+ -t 0.17875 -s 1 -d 2 -p cbr -e 210 -c 1 -i 22 -a 1
- -t 0.17875 -s 1 -d 2 -p cbr -e 210 -c 1 -i 22 -a 1
h -t 0.17875 -s 1 -d 2 -p cbr -e 210 -c 1 -i 22 -a 1
r -t 0.17961 -s 1 -d 2 -p cbr -e 210 -c 1 -i 8 -a 1
+ -t 0.17961 -s 2 -d 3 -p cbr -e 210 -c 1 -i 8 -a 1
d -t 0.17961 -s 2 -d 3 -p cbr -e 210 -c 1 -i 8 -a 1
+ -t 0.1825 -s 1 -d 2 -p cbr -e 210 -c 1 -i 23 -a 1
- -t 0.1825 -s 1 -d 2 -p cbr -e 210 -c 1 -i 23 -a 1
h -t 0.1825 -s 1 -d 2 -p cbr -e 210 -c 1 -i 23 -a 1
r -t 0.18336 -s 1 -d 2 -p cbr -e 210 -c 1 -i 9 -a 1
+ -t 0.18336 -s 2 -d 3 -p cbr -e 210 -c 1 -i 9 -a 1
d -t 0.18336 -s 2 -d 3 -p cbr -e 210 -c 1 -i 9 -a 1
- -t 0.18397 -s 2 -d 3 -p cbr -e 210 -c 1 -i 5 -a 1
h -t 0.18397 -s 2 -d 3 -p cbr -e 210 -c 1 -i 5 -a 1
+ -t 0.18625 -s 1 -d 2 -p cbr -e 210 -c 1 -i 24 -a 1
- -t 0.18625 -s 1 -d 2 -p cbr -e 210 -c 1 -i 24 -a 1
h -t 0.18625 -s 1 -d 2 -p cbr -e 210 -c 1 -i 24 -a 1
r -t 0.18711 -s 1 -d 2 -p cbr -e 210 -c 1 -i 10 -a 1
+ -t 0.18711 -s 2 -d 3 -p cbr -e 210 -c 1 -i 10 -a 1
- -t 0.18733 -s 2 -d 3 -p cbr -e 210 -c 1 -i 10 -a 1
h -t 0.18733 -s 2 -d 3 -p cbr -e 210 -c 1 -i 10 -a 1
+ -t 0.19 -s 1 -d 2 -p cbr -e 210 -c 1 -i 25 -a 1
- -t 0.19 -s 1 -d 2 -p cbr -e 210 -c 1 -i 25 -a 1
h -t 0.19 -s 1 -d 2 -p cbr -e 210 -c 1 -i 25 -a 1
r -t 0.19086 -s 1 -d 2 -p cbr -e 210 -c 1 -i 11 -a 1
+ -t 0.19086 -s 2 -d 3 -p cbr -e 210 -c 1 -i 11 -a 1
- -t 0.19086 -s 2 -d 3 -p cbr -e 210 -c 1 -i 11 -a 1
h -t 0.19086 -s 2 -d 3 -p cbr -e 210 -c 1 -i 11 -a 1
+ -t 0.19375 -s 1 -d 2 -p cbr -e 210 -c 1 -i 26 -a 1
- -t 0.19375 -s 1 -d 2 -p cbr -e 210 -c 1 -i 26 -a 1
h -t 0.19375 -s 1 -d 2 -p cbr -e 210 -c 1 -i 26 -a 1
r -t 0.19461 -s 1 -d 2 -p cbr -e 210 -c 1 -i 12 -a 1
+ -t 0.19461 -s 2 -d 3 -p cbr -e 210 -c 1 -i 12 -a 1
- -t 0.19461 -s 2 -d 3 -p cbr -e 210 -c 1 -i 12 -a 1
h -t 0.19461 -s 2 -d 3 -p cbr -e 210 -c 1 -i 12 -a 1
+ -t 0.1975 -s 1 -d 2 -p cbr -e 210 -c 1 -i 27 -a 1
- -t 0.1975 -s 1 -d 2 -p cbr -e 210 -c 1 -i 27 -a 1
h -t 0.1975 -s 1 -d 2 -p cbr -e 210 -c 1 -i 27 -a 1
r -t 0.19836 -s 1 -d 2 -p cbr -e 210 -c 1 -i 13 -a 1
+ -t 0.19836 -s 2 -d 3 -p cbr -e 210 -c 1 -i 13 -a 1
- -t 0.19836 -s 2 -d 3 -p cbr -e 210 -c 1 -i 13 -a 1
h -t 0.19836 -s 2 -d 3 -p cbr -e 210 -c 1 -i 13 -a 1
+ -t 0.20125 -s 1 -d 2 -p cbr -e 210 -c 1 -i 28 -a 1
- -t 0.20125 -s 1 -d 2 -p cbr -e 210 -c 1 -i 28 -a 1
h -t 0.20125 -s 1 -d 2 -p cbr -e 210 -c 1 -i 28 -a 1
r -t 0.20211 -s 1 -d 2 -p cbr -e 210 -c 1 -i 14 -a 1
+ -t 0.20211 -s 2 -d 3 -p cbr -e 210 -c 1 -i 14 -a 1
- -t 0.20211 -s 2 -d 3 -p cbr -e 210 -c 1 -i 14 -a 1
h -t 0.20211 -s 2 -d 3 -p cbr -e 210 -c 1 -i 14 -a 1
+ -t 0.205 -s 1 -d 2 -p cbr -e 210 -c 1 -i 29 -a 1
- -t 0.205 -s 1 -d 2 -p cbr -e 210 -c 1 -i 29 -a 1
h -t 0.205 -s 1 -d 2 -p cbr -e 210 -c 1 -i 29 -a 1
r -t 0.20586 -s 1 -d 2 -p cbr -e 210 -c 1 -i 15 -a 1
+ -t 0.20586 -s 2 -d 3 -p cbr -e 210 -c 1 -i 15 -a 1
- -t 0.20586 -s 2 -d 3 -p cbr -e 210 -c 1 -i 15 -a 1
h -t 0.20586 -s 2 -d 3 -p cbr -e 210 -c 1 -i 15 -a 1
r -t 0.20672 -s 2 -d 3 -p cbr -e 210 -c 1 -i 1 -a 1
+ -t 0.20672 -s 3 -d 5 -p cbr -e 210 -c 1 -i 1 -a 1
- -t 0.20672 -s 3 -d 5 -p cbr -e 210 -c 1 -i 1 -a 1
h -t 0.20672 -s 3 -d 5 -p cbr -e 210 -c 1 -i 1 -a 1
+ -t 0.20875 -s 1 -d 2 -p cbr -e 210 -c 1 -i 30 -a 1
- -t 0.20875 -s 1 -d 2 -p cbr -e 210 -c 1 -i 30 -a 1
h -t 0.20875 -s 1 -d 2 -p cbr -e 210 -c 1 -i 30 -a 1
r -t 0.20961 -s 1 -d 2 -p cbr -e 210 -c 1 -i 16 -a 1
+ -t 0.20961 -s 2 -d 3 -p cbr -e 210 -c 1 -i 16 -a 1
- -t 0.20961 -s 2 -d 3 -p cbr -e 210 -c 1 -i 16 -a 1
h -t 0.20961 -s 2 -d 3 -p cbr -e 210 -c 1 -i 16 -a 1
r -t 0.21047 -s 2 -d 3 -p cbr -e 210 -c 1 -i 2 -a 1
+ -t 0.21047 -s 3 -d 5 -p cbr -e 210 -c 1 -i 2 -a 1
- -t 0.21047 -s 3 -d 5 -p cbr -e 210 -c 1 -i 2 -a 1
h -t 0.21047 -s 3 -d 5 -p cbr -e 210 -c 1 -i 2 -a 1
+ -t 0.2125 -s 1 -d 2 -p cbr -e 210 -c 1 -i 31 -a 1
- -t 0.2125 -s 1 -d 2 -p cbr -e 210 -c 1 -i 31 -a 1
h -t 0.2125 -s 1 -d 2 -p cbr -e 210 -c 1 -i 31 -a 1
r -t 0.21336 -s 1 -d 2 -p cbr -e 210 -c 1 -i 17 -a 1
+ -t 0.21336 -s 2 -d 3 -p cbr -e 210 -c 1 -i 17 -a 1
- -t 0.21336 -s 2 -d 3 -p cbr -e 210 -c 1 -i 17 -a 1
h -t 0.21336 -s 2 -d 3 -p cbr -e 210 -c 1 -i 17 -a 1
r -t 0.21422 -s 2 -d 3 -p cbr -e 210 -c 1 -i 3 -a 1
+ -t 0.21422 -s 3 -d 5 -p cbr -e 210 -c 1 -i 3 -a 1
- -t 0.21422 -s 3 -d 5 -p cbr -e 210 -c 1 -i 3 -a 1
h -t 0.21422 -s 3 -d 5 -p cbr -e 210 -c 1 -i 3 -a 1
+ -t 0.21625 -s 1 -d 2 -p cbr -e 210 -c 1 -i 32 -a 1
- -t 0.21625 -s 1 -d 2 -p cbr -e 210 -c 1 -i 32 -a 1
h -t 0.21625 -s 1 -d 2 -p cbr -e 210 -c 1 -i 32 -a 1
r -t 0.21711 -s 1 -d 2 -p cbr -e 210 -c 1 -i 18 -a 1
+ -t 0.21711 -s 2 -d 3 -p cbr -e 210 -c 1 -i 18 -a 1
- -t 0.21711 -s 2 -d 3 -p cbr -e 210 -c 1 -i 18 -a 1
h -t 0.21711 -s 2 -d 3 -p cbr -e 210 -c 1 -i 18 -a 1
r -t 0.21797 -s 2 -d 3 -p cbr -e 210 -c 1 -i 4 -a 1
+ -t 0.21797 -s 3 -d 5 -p cbr -e 210 -c 1 -i 4 -a 1
- -t 0.21797 -s 3 -d 5 -p cbr -e 210 -c 1 -i 4 -a 1
h -t 0.21797 -s 3 -d 5 -p cbr -e 210 -c 1 -i 4 -a 1
+ -t 0.22 -s 1 -d 2 -p cbr -e 210 -c 1 -i 33 -a 1
- -t 0.22 -s 1 -d 2 -p cbr -e 210 -c 1 -i 33 -a 1
h -t 0.22 -s 1 -d 2 -p cbr -e 210 -c 1 -i 33 -a 1
r -t 0.22086 -s 1 -d 2 -p cbr -e 210 -c 1 -i 19 -a 1
+ -t 0.22086 -s 2 -d 3 -p cbr -e 210 -c 1 -i 19 -a 1
- -t 0.22086 -s 2 -d 3 -p cbr -e 210 -c 1 -i 19 -a 1
h -t 0.22086 -s 2 -d 3 -p cbr -e 210 -c 1 -i 19 -a 1
+ -t 0.22375 -s 1 -d 2 -p cbr -e 210 -c 1 -i 34 -a 1
- -t 0.22375 -s 1 -d 2 -p cbr -e 210 -c 1 -i 34 -a 1
h -t 0.22375 -s 1 -d 2 -p cbr -e 210 -c 1 -i 34 -a 1
r -t 0.22461 -s 1 -d 2 -p cbr -e 210 -c 1 -i 20 -a 1
+ -t 0.22461 -s 2 -d 3 -p cbr -e 210 -c 1 -i 20 -a 1
- -t 0.22461 -s 2 -d 3 -p cbr -e 210 -c 1 -i 20 -a 1
h -t 0.22461 -s 2 -d 3 -p cbr -e 210 -c 1 -i 20 -a 1
+ -t 0.2275 -s 1 -d 2 -p cbr -e 210 -c 1 -i 35 -a 1
- -t 0.2275 -s 1 -d 2 -p cbr -e 210 -c 1 -i 35 -a 1
h -t 0.2275 -s 1 -d 2 -p cbr -e 210 -c 1 -i 35 -a 1
r -t 0.22836 -s 1 -d 2 -p cbr -e 210 -c 1 -i 21 -a 1
+ -t 0.22836 -s 2 -d 3 -p cbr -e 210 -c 1 -i 21 -a 1
- -t 0.22836 -s 2 -d 3 -p cbr -e 210 -c 1 -i 21 -a 1
h -t 0.22836 -s 2 -d 3 -p cbr -e 210 -c 1 -i 21 -a 1
+ -t 0.23125 -s 1 -d 2 -p cbr -e 210 -c 1 -i 36 -a 1
- -t 0.23125 -s 1 -d 2 -p cbr -e 210 -c 1 -i 36 -a 1
h -t 0.23125 -s 1 -d 2 -p cbr -e 210 -c 1 -i 36 -a 1
r -t 0.23211 -s 1 -d 2 -p cbr -e 210 -c 1 -i 22 -a 1
+ -t 0.23211 -s 2 -d 3 -p cbr -e 210 -c 1 -i 22 -a 1
- -t 0.23211 -s 2 -d 3 -p cbr -e 210 -c 1 -i 22 -a 1
h -t 0.23211 -s 2 -d 3 -p cbr -e 210 -c 1 -i 22 -a 1
r -t 0.23397 -s 2 -d 3 -p tcp -e 1000 -c 0 -i 0 -a 0 -S 0 -y {0 0}
+ -t 0.23397 -s 3 -d 4 -p tcp -e 1000 -c 0 -i 0 -a 0 -S 0 -y {0 0}
- -t 0.23397 -s 3 -d 4 -p tcp -e 1000 -c 0 -i 0 -a 0 -S 0 -y {0 0}
h -t 0.23397 -s 3 -d 4 -p tcp -e 1000 -c 0 -i 0 -a 0 -S 0 -y {-1 -1}
+ -t 0.235 -s 1 -d 2 -p cbr -e 210 -c 1 -i 37 -a 1
- -t 0.235 -s 1 -d 2 -p cbr -e 210 -c 1 -i 37 -a 1
h -t 0.235 -s 1 -d 2 -p cbr -e 210 -c 1 -i 37 -a 1
r -t 0.23586 -s 1 -d 2 -p cbr -e 210 -c 1 -i 23 -a 1
+ -t 0.23586 -s 2 -d 3 -p cbr -e 210 -c 1 -i 23 -a 1
- -t 0.23586 -s 2 -d 3 -p cbr -e 210 -c 1 -i 23 -a 1
h -t 0.23586 -s 2 -d 3 -p cbr -e 210 -c 1 -i 23 -a 1
r -t 0.23733 -s 2 -d 3 -p cbr -e 210 -c 1 -i 5 -a 1
+ -t 0.23733 -s 3 -d 5 -p cbr -e 210 -c 1 -i 5 -a 1
- -t 0.23733 -s 3 -d 5 -p cbr -e 210 -c 1 -i 5 -a 1
h -t 0.23733 -s 3 -d 5 -p cbr -e 210 -c 1 -i 5 -a 1
+ -t 0.23875 -s 1 -d 2 -p cbr -e 210 -c 1 -i 38 -a 1
- -t 0.23875 -s 1 -d 2 -p cbr -e 210 -c 1 -i 38 -a 1
h -t 0.23875 -s 1 -d 2 -p cbr -e 210 -c 1 -i 38 -a 1
r -t 0.23961 -s 1 -d 2 -p cbr -e 210 -c 1 -i 24 -a 1
+ -t 0.23961 -s 2 -d 3 -p cbr -e 210 -c 1 -i 24 -a 1
- -t 0.23961 -s 2 -d 3 -p cbr -e 210 -c 1 -i 24 -a 1
h -t 0.23961 -s 2 -d 3 -p cbr -e 210 -c 1 -i 24 -a 1
r -t 0.24069 -s 2 -d 3 -p cbr -e 210 -c 1 -i 10 -a 1
+ -t 0.24069 -s 3 -d 5 -p cbr -e 210 -c 1 -i 10 -a 1
- -t 0.24069 -s 3 -d 5 -p cbr -e 210 -c 1 -i 10 -a 1
h -t 0.24069 -s 3 -d 5 -p cbr -e 210 -c 1 -i 10 -a 1
+ -t 0.2425 -s 1 -d 2 -p cbr -e 210 -c 1 -i 39 -a 1
- -t 0.2425 -s 1 -d 2 -p cbr -e 210 -c 1 -i 39 -a 1
h -t 0.2425 -s 1 -d 2 -p cbr -e 210 -c 1 -i 39 -a 1
r -t 0.24336 -s 1 -d 2 -p cbr -e 210 -c 1 -i 25 -a 1
+ -t 0.24336 -s 2 -d 3 -p cbr -e 210 -c 1 -i 25 -a 1
- -t 0.24336 -s 2 -d 3 -p cbr -e 210 -c 1 -i 25 -a 1
h -t 0.24336 -s 2 -d 3 -p cbr -e 210 -c 1 -i 25 -a 1
r -t 0.24422 -s 2 -d 3 -p cbr -e 210 -c 1 -i 11 -a 1
+ -t 0.24422 -s 3 -d 5 -p cbr -e 210 -c 1 -i 11 -a 1
- -t 0.24422 -s 3 -d 5 -p cbr -e 210 -c 1 -i 11 -a 1
h -t 0.24422 -s 3 -d 5 -p cbr -e 210 -c 1 -i 11 -a 1
+ -t 0.24625 -s 1 -d 2 -p cbr -e 210 -c 1 -i 40 -a 1
- -t 0.24625 -s 1 -d 2 -p cbr -e 210 -c 1 -i 40 -a 1
h -t 0.24625 -s 1 -d 2 -p cbr -e 210 -c 1 -i 40 -a 1
r -t 0.24711 -s 1 -d 2 -p cbr -e 210 -c 1 -i 26 -a 1
+ -t 0.24711 -s 2 -d 3 -p cbr -e 210 -c 1 -i 26 -a 1
- -t 0.24711 -s 2 -d 3 -p cbr -e 210 -c 1 -i 26 -a 1
h -t 0.24711 -s 2 -d 3 -p cbr -e 210 -c 1 -i 26 -a 1
r -t 0.24797 -s 2 -d 3 -p cbr -e 210 -c 1 -i 12 -a 1
+ -t 0.24797 -s 3 -d 5 -p cbr -e 210 -c 1 -i 12 -a 1
- -t 0.24797 -s 3 -d 5 -p cbr -e 210 -c 1 -i 12 -a 1
h -t 0.24797 -s 3 -d 5 -p cbr -e 210 -c 1 -i 12 -a 1
+ -t 0.25 -s 1 -d 2 -p cbr -e 210 -c 1 -i 41 -a 1
- -t 0.25 -s 1 -d 2 -p cbr -e 210 -c 1 -i 41 -a 1
h -t 0.25 -s 1 -d 2 -p cbr -e 210 -c 1 -i 41 -a 1
r -t 0.25086 -s 1 -d 2 -p cbr -e 210 -c 1 -i 27 -a 1
+ -t 0.25086 -s 2 -d 3 -p cbr -e 210 -c 1 -i 27 -a 1
- -t 0.25086 -s 2 -d 3 -p cbr -e 210 -c 1 -i 27 -a 1
h -t 0.25086 -s 2 -d 3 -p cbr -e 210 -c 1 -i 27 -a 1
r -t 0.25172 -s 2 -d 3 -p cbr -e 210 -c 1 -i 13 -a 1
+ -t 0.25172 -s 3 -d 5 -p cbr -e 210 -c 1 -i 13 -a 1
- -t 0.25172 -s 3 -d 5 -p cbr -e 210 -c 1 -i 13 -a 1
h -t 0.25172 -s 3 -d 5 -p cbr -e 210 -c 1 -i 13 -a 1
+ -t 0.25375 -s 1 -d 2 -p cbr -e 210 -c 1 -i 42 -a 1
- -t 0.25375 -s 1 -d 2 -p cbr -e 210 -c 1 -i 42 -a 1
h -t 0.25375 -s 1 -d 2 -p cbr -e 210 -c 1 -i 42 -a 1
r -t 0.25461 -s 1 -d 2 -p cbr -e 210 -c 1 -i 28 -a 1
+ -t 0.25461 -s 2 -d 3 -p cbr -e 210 -c 1 -i 28 -a 1
- -t 0.25461 -s 2 -d 3 -p cbr -e 210 -c 1 -i 28 -a 1
h -t 0.25461 -s 2 -d 3 -p cbr -e 210 -c 1 -i 28 -a 1
r -t 0.25547 -s 2 -d 3 -p cbr -e 210 -c 1 -i 14 -a 1
+ -t 0.25547 -s 3 -d 5 -p cbr -e 210 -c 1 -i 14 -a 1
- -t 0.25547 -s 3 -d 5 -p cbr -e 210 -c 1 -i 14 -a 1
h -t 0.25547 -s 3 -d 5 -p cbr -e 210 -c 1 -i 14 -a 1
+ -t 0.2575 -s 1 -d 2 -p cbr -e 210 -c 1 -i 43 -a 1
- -t 0.2575 -s 1 -d 2 -p cbr -e 210 -c 1 -i 43 -a 1
h -t 0.2575 -s 1 -d 2 -p cbr -e 210 -c 1 -i 43 -a 1
r -t 0.25836 -s 1 -d 2 -p cbr -e 210 -c 1 -i 29 -a 1
+ -t 0.25836 -s 2 -d 3 -p cbr -e 210 -c 1 -i 29 -a 1
- -t 0.25836 -s 2 -d 3 -p cbr -e 210 -c 1 -i 29 -a 1
h -t 0.25836 -s 2 -d 3 -p cbr -e 210 -c 1 -i 29 -a 1
r -t 0.25922 -s 2 -d 3 -p cbr -e 210 -c 1 -i 15 -a 1
+ -t 0.25922 -s 3 -d 5 -p cbr -e 210 -c 1 -i 15 -a 1
- -t 0.25922 -s 3 -d 5 -p cbr -e 210 -c 1 -i 15 -a 1
h -t 0.25922 -s 3 -d 5 -p cbr -e 210 -c 1 -i 15 -a 1
r -t 0.26008 -s 3 -d 5 -p cbr -e 210 -c 1 -i 1 -a 1
+ -t 0.26125 -s 1 -d 2 -p cbr -e 210 -c 1 -i 44 -a 1
- -t 0.26125 -s 1 -d 2 -p cbr -e 210 -c 1 -i 44 -a 1
h -t 0.26125 -s 1 -d 2 -p cbr -e 210 -c 1 -i 44 -a 1
r -t 0.26211 -s 1 -d 2 -p cbr -e 210 -c 1 -i 30 -a 1
+ -t 0.26211 -s 2 -d 3 -p cbr -e 210 -c 1 -i 30 -a 1
- -t 0.26211 -s 2 -d 3 -p cbr -e 210 -c 1 -i 30 -a 1
h -t 0.26211 -s 2 -d 3 -p cbr -e 210 -c 1 -i 30 -a 1
r -t 0.26297 -s 2 -d 3 -p cbr -e 210 -c 1 -i 16 -a 1
+ -t 0.26297 -s 3 -d 5 -p cbr -e 210 -c 1 -i 16 -a 1
- -t 0.26297 -s 3 -d 5 -p cbr -e 210 -c 1 -i 16 -a 1
h -t 0.26297 -s 3 -d 5 -p cbr -e 210 -c 1 -i 16 -a 1
r -t 0.26383 -s 3 -d 5 -p cbr -e 210 -c 1 -i 2 -a 1
+ -t 0.265 -s 1 -d 2 -p cbr -e 210 -c 1 -i 45 -a 1
- -t 0.265 -s 1 -d 2 -p cbr -e 210 -c 1 -i 45 -a 1
h -t 0.265 -s 1 -d 2 -p cbr -e 210 -c 1 -i 45 -a 1
r -t 0.26586 -s 1 -d 2 -p cbr -e 210 -c 1 -i 31 -a 1
+ -t 0.26586 -s 2 -d 3 -p cbr -e 210 -c 1 -i 31 -a 1
- -t 0.26586 -s 2 -d 3 -p cbr -e 210 -c 1 -i 31 -a 1
h -t 0.26586 -s 2 -d 3 -p cbr -e 210 -c 1 -i 31 -a 1
r -t 0.26672 -s 2 -d 3 -p cbr -e 210 -c 1 -i 17 -a 1
+ -t 0.26672 -s 3 -d 5 -p cbr -e 210 -c 1 -i 17 -a 1
- -t 0.26672 -s 3 -d 5 -p cbr -e 210 -c 1 -i 17 -a 1
h -t 0.26672 -s 3 -d 5 -p cbr -e 210 -c 1 -i 17 -a 1
r -t 0.26758 -s 3 -d 5 -p cbr -e 210 -c 1 -i 3 -a 1
+ -t 0.26875 -s 1 -d 2 -p cbr -e 210 -c 1 -i 46 -a 1
- -t 0.26875 -s 1 -d 2 -p cbr -e 210 -c 1 -i 46 -a 1
h -t 0.26875 -s 1 -d 2 -p cbr -e 210 -c 1 -i 46 -a 1
r -t 0.26961 -s 1 -d 2 -p cbr -e 210 -c 1 -i 32 -a 1
+ -t 0.26961 -s 2 -d 3 -p cbr -e 210 -c 1 -i 32 -a 1
- -t 0.26961 -s 2 -d 3 -p cbr -e 210 -c 1 -i 32 -a 1
h -t 0.26961 -s 2 -d 3 -p cbr -e 210 -c 1 -i 32 -a 1
r -t 0.27047 -s 2 -d 3 -p cbr -e 210 -c 1 -i 18 -a 1
+ -t 0.27047 -s 3 -d 5 -p cbr -e 210 -c 1 -i 18 -a 1
- -t 0.27047 -s 3 -d 5 -p cbr -e 210 -c 1 -i 18 -a 1
h -t 0.27047 -s 3 -d 5 -p cbr -e 210 -c 1 -i 18 -a 1
r -t 0.27133 -s 3 -d 5 -p cbr -e 210 -c 1 -i 4 -a 1
+ -t 0.2725 -s 1 -d 2 -p cbr -e 210 -c 1 -i 47 -a 1
- -t 0.2725 -s 1 -d 2 -p cbr -e 210 -c 1 -i 47 -a 1
h -t 0.2725 -s 1 -d 2 -p cbr -e 210 -c 1 -i 47 -a 1
r -t 0.27336 -s 1 -d 2 -p cbr -e 210 -c 1 -i 33 -a 1
+ -t 0.27336 -s 2 -d 3 -p cbr -e 210 -c 1 -i 33 -a 1
- -t 0.27336 -s 2 -d 3 -p cbr -e 210 -c 1 -i 33 -a 1
h -t 0.27336 -s 2 -d 3 -p cbr -e 210 -c 1 -i 33 -a 1
r -t 0.27422 -s 2 -d 3 -p cbr -e 210 -c 1 -i 19 -a 1
+ -t 0.27422 -s 3 -d 5 -p cbr -e 210 -c 1 -i 19 -a 1
- -t 0.27422 -s 3 -d 5 -p cbr -e 210 -c 1 -i 19 -a 1
h -t 0.27422 -s 3 -d 5 -p cbr -e 210 -c 1 -i 19 -a 1
+ -t 0.27625 -s 1 -d 2 -p cbr -e 210 -c 1 -i 48 -a 1
- -t 0.27625 -s 1 -d 2 -p cbr -e 210 -c 1 -i 48 -a 1
h -t 0.27625 -s 1 -d 2 -p cbr -e 210 -c 1 -i 48 -a 1
r -t 0.27711 -s 1 -d 2 -p cbr -e 210 -c 1 -i 34 -a 1
+ -t 0.27711 -s 2 -d 3 -p cbr -e 210 -c 1 -i 34 -a 1
- -t 0.27711 -s 2 -d 3 -p cbr -e 210 -c 1 -i 34 -a 1
h -t 0.27711 -s 2 -d 3 -p cbr -e 210 -c 1 -i 34 -a 1
r -t 0.27797 -s 2 -d 3 -p cbr -e 210 -c 1 -i 20 -a 1
+ -t 0.27797 -s 3 -d 5 -p cbr -e 210 -c 1 -i 20 -a 1
- -t 0.27797 -s 3 -d 5 -p cbr -e 210 -c 1 -i 20 -a 1
h -t 0.27797 -s 3 -d 5 -p cbr -e 210 -c 1 -i 20 -a 1
+ -t 0.28 -s 1 -d 2 -p cbr -e 210 -c 1 -i 49 -a 1
- -t 0.28 -s 1 -d 2 -p cbr -e 210 -c 1 -i 49 -a 1
h -t 0.28 -s 1 -d 2 -p cbr -e 210 -c 1 -i 49 -a 1
r -t 0.28086 -s 1 -d 2 -p cbr -e 210 -c 1 -i 35 -a 1
+ -t 0.28086 -s 2 -d 3 -p cbr -e 210 -c 1 -i 35 -a 1
- -t 0.28086 -s 2 -d 3 -p cbr -e 210 -c 1 -i 35 -a 1
h -t 0.28086 -s 2 -d 3 -p cbr -e 210 -c 1 -i 35 -a 1
r -t 0.28172 -s 2 -d 3 -p cbr -e 210 -c 1 -i 21 -a 1
+ -t 0.28172 -s 3 -d 5 -p cbr -e 210 -c 1 -i 21 -a 1
- -t 0.28172 -s 3 -d 5 -p cbr -e 210 -c 1 -i 21 -a 1
h -t 0.28172 -s 3 -d 5 -p cbr -e 210 -c 1 -i 21 -a 1
+ -t 0.28375 -s 1 -d 2 -p cbr -e 210 -c 1 -i 50 -a 1
- -t 0.28375 -s 1 -d 2 -p cbr -e 210 -c 1 -i 50 -a 1
h -t 0.28375 -s 1 -d 2 -p cbr -e 210 -c 1 -i 50 -a 1
r -t 0.28461 -s 1 -d 2 -p cbr -e 210 -c 1 -i 36 -a 1
+ -t 0.28461 -s 2 -d 3 -p cbr -e 210 -c 1 -i 36 -a 1
- -t 0.28461 -s 2 -d 3 -p cbr -e 210 -c 1 -i 36 -a 1
h -t 0.28461 -s 2 -d 3 -p cbr -e 210 -c 1 -i 36 -a 1
r -t 0.28547 -s 2 -d 3 -p cbr -e 210 -c 1 -i 22 -a 1
+ -t 0.28547 -s 3 -d 5 -p cbr -e 210 -c 1 -i 22 -a 1
- -t 0.28547 -s 3 -d 5 -p cbr -e 210 -c 1 -i 22 -a 1
h -t 0.28547 -s 3 -d 5 -p cbr -e 210 -c 1 -i 22 -a 1
+ -t 0.2875 -s 1 -d 2 -p cbr -e 210 -c 1 -i 51 -a 1
- -t 0.2875 -s 1 -d 2 -p cbr -e 210 -c 1 -i 51 -a 1
h -t 0.2875 -s 1 -d 2 -p cbr -e 210 -c 1 -i 51 -a 1
r -t 0.28836 -s 1 -d 2 -p cbr -e 210 -c 1 -i 37 -a 1
+ -t 0.28836 -s 2 -d 3 -p cbr -e 210 -c 1 -i 37 -a 1
- -t 0.28836 -s 2 -d 3 -p cbr -e 210 -c 1 -i 37 -a 1
h -t 0.28836 -s 2 -d 3 -p cbr -e 210 -c 1 -i 37 -a 1
r -t 0.28922 -s 2 -d 3 -p cbr -e 210 -c 1 -i 23 -a 1
+ -t 0.28922 -s 3 -d 5 -p cbr -e 210 -c 1 -i 23 -a 1
- -t 0.28922 -s 3 -d 5 -p cbr -e 210 -c 1 -i 23 -a 1
h -t 0.28922 -s 3 -d 5 -p cbr -e 210 -c 1 -i 23 -a 1
r -t 0.29069 -s 3 -d 5 -p cbr -e 210 -c 1 -i 5 -a 1
+ -t 0.29125 -s 1 -d 2 -p cbr -e 210 -c 1 -i 52 -a 1
- -t 0.29125 -s 1 -d 2 -p cbr -e 210 -c 1 -i 52 -a 1
h -t 0.29125 -s 1 -d 2 -p cbr -e 210 -c 1 -i 52 -a 1
r -t 0.29211 -s 1 -d 2 -p cbr -e 210 -c 1 -i 38 -a 1
+ -t 0.29211 -s 2 -d 3 -p cbr -e 210 -c 1 -i 38 -a 1
- -t 0.29211 -s 2 -d 3 -p cbr -e 210 -c 1 -i 38 -a 1
h -t 0.29211 -s 2 -d 3 -p cbr -e 210 -c 1 -i 38 -a 1
r -t 0.29297 -s 2 -d 3 -p cbr -e 210 -c 1 -i 24 -a 1
+ -t 0.29297 -s 3 -d 5 -p cbr -e 210 -c 1 -i 24 -a 1
- -t 0.29297 -s 3 -d 5 -p cbr -e 210 -c 1 -i 24 -a 1
h -t 0.29297 -s 3 -d 5 -p cbr -e 210 -c 1 -i 24 -a 1
r -t 0.29405 -s 3 -d 5 -p cbr -e 210 -c 1 -i 10 -a 1
+ -t 0.295 -s 1 -d 2 -p cbr -e 210 -c 1 -i 53 -a 1
- -t 0.295 -s 1 -d 2 -p cbr -e 210 -c 1 -i 53 -a 1
h -t 0.295 -s 1 -d 2 -p cbr -e 210 -c 1 -i 53 -a 1
r -t 0.29586 -s 1 -d 2 -p cbr -e 210 -c 1 -i 39 -a 1
+ -t 0.29586 -s 2 -d 3 -p cbr -e 210 -c 1 -i 39 -a 1
- -t 0.29586 -s 2 -d 3 -p cbr -e 210 -c 1 -i 39 -a 1
h -t 0.29586 -s 2 -d 3 -p cbr -e 210 -c 1 -i 39 -a 1
r -t 0.29672 -s 2 -d 3 -p cbr -e 210 -c 1 -i 25 -a 1
+ -t 0.29672 -s 3 -d 5 -p cbr -e 210 -c 1 -i 25 -a 1
- -t 0.29672 -s 3 -d 5 -p cbr -e 210 -c 1 -i 25 -a 1
h -t 0.29672 -s 3 -d 5 -p cbr -e 210 -c 1 -i 25 -a 1
r -t 0.29758 -s 3 -d 5 -p cbr -e 210 -c 1 -i 11 -a 1
+ -t 0.29875 -s 1 -d 2 -p cbr -e 210 -c 1 -i 54 -a 1
- -t 0.29875 -s 1 -d 2 -p cbr -e 210 -c 1 -i 54 -a 1
h -t 0.29875 -s 1 -d 2 -p cbr -e 210 -c 1 -i 54 -a 1
r -t 0.29961 -s 1 -d 2 -p cbr -e 210 -c 1 -i 40 -a 1
+ -t 0.29961 -s 2 -d 3 -p cbr -e 210 -c 1 -i 40 -a 1
- -t 0.29961 -s 2 -d 3 -p cbr -e 210 -c 1 -i 40 -a 1
h -t 0.29961 -s 2 -d 3 -p cbr -e 210 -c 1 -i 40 -a 1
r -t 0.29997 -s 3 -d 4 -p tcp -e 1000 -c 0 -i 0 -a 0 -S 0 -y {0 0}
+ -t 0.29997 -s 4 -d 3 -p ack -e 40 -c 0 -i 55 -a 0 -S 0 -y {0 0}
- -t 0.29997 -s 4 -d 3 -p ack -e 40 -c 0 -i 55 -a 0 -S 0 -y {0 0}
h -t 0.29997 -s 4 -d 3 -p ack -e 40 -c 0 -i 55 -a 0 -S 0 -y {-1 -1}
v -t 0.29999999999999999 sim_annotation 0.29999999999999999 4 Receive Ack_0
r -t 0.30047 -s 2 -d 3 -p cbr -e 210 -c 1 -i 26 -a 1
+ -t 0.30047 -s 3 -d 5 -p cbr -e 210 -c 1 -i 26 -a 1
- -t 0.30047 -s 3 -d 5 -p cbr -e 210 -c 1 -i 26 -a 1
h -t 0.30047 -s 3 -d 5 -p cbr -e 210 -c 1 -i 26 -a 1
r -t 0.30133 -s 3 -d 5 -p cbr -e 210 -c 1 -i 12 -a 1
+ -t 0.3025 -s 1 -d 2 -p cbr -e 210 -c 1 -i 56 -a 1
- -t 0.3025 -s 1 -d 2 -p cbr -e 210 -c 1 -i 56 -a 1
h -t 0.3025 -s 1 -d 2 -p cbr -e 210 -c 1 -i 56 -a 1
r -t 0.30336 -s 1 -d 2 -p cbr -e 210 -c 1 -i 41 -a 1
+ -t 0.30336 -s 2 -d 3 -p cbr -e 210 -c 1 -i 41 -a 1
- -t 0.30336 -s 2 -d 3 -p cbr -e 210 -c 1 -i 41 -a 1
h -t 0.30336 -s 2 -d 3 -p cbr -e 210 -c 1 -i 41 -a 1
r -t 0.30422 -s 2 -d 3 -p cbr -e 210 -c 1 -i 27 -a 1
+ -t 0.30422 -s 3 -d 5 -p cbr -e 210 -c 1 -i 27 -a 1
- -t 0.30422 -s 3 -d 5 -p cbr -e 210 -c 1 -i 27 -a 1
h -t 0.30422 -s 3 -d 5 -p cbr -e 210 -c 1 -i 27 -a 1
r -t 0.30508 -s 3 -d 5 -p cbr -e 210 -c 1 -i 13 -a 1
+ -t 0.30625 -s 1 -d 2 -p cbr -e 210 -c 1 -i 57 -a 1
- -t 0.30625 -s 1 -d 2 -p cbr -e 210 -c 1 -i 57 -a 1
h -t 0.30625 -s 1 -d 2 -p cbr -e 210 -c 1 -i 57 -a 1
r -t 0.30711 -s 1 -d 2 -p cbr -e 210 -c 1 -i 42 -a 1
+ -t 0.30711 -s 2 -d 3 -p cbr -e 210 -c 1 -i 42 -a 1
- -t 0.30711 -s 2 -d 3 -p cbr -e 210 -c 1 -i 42 -a 1
h -t 0.30711 -s 2 -d 3 -p cbr -e 210 -c 1 -i 42 -a 1
r -t 0.30797 -s 2 -d 3 -p cbr -e 210 -c 1 -i 28 -a 1
+ -t 0.30797 -s 3 -d 5 -p cbr -e 210 -c 1 -i 28 -a 1
- -t 0.30797 -s 3 -d 5 -p cbr -e 210 -c 1 -i 28 -a 1
h -t 0.30797 -s 3 -d 5 -p cbr -e 210 -c 1 -i 28 -a 1
r -t 0.30883 -s 3 -d 5 -p cbr -e 210 -c 1 -i 14 -a 1
+ -t 0.31 -s 1 -d 2 -p cbr -e 210 -c 1 -i 58 -a 1
- -t 0.31 -s 1 -d 2 -p cbr -e 210 -c 1 -i 58 -a 1
h -t 0.31 -s 1 -d 2 -p cbr -e 210 -c 1 -i 58 -a 1
r -t 0.31086 -s 1 -d 2 -p cbr -e 210 -c 1 -i 43 -a 1
+ -t 0.31086 -s 2 -d 3 -p cbr -e 210 -c 1 -i 43 -a 1
- -t 0.31086 -s 2 -d 3 -p cbr -e 210 -c 1 -i 43 -a 1
h -t 0.31086 -s 2 -d 3 -p cbr -e 210 -c 1 -i 43 -a 1
r -t 0.31172 -s 2 -d 3 -p cbr -e 210 -c 1 -i 29 -a 1
+ -t 0.31172 -s 3 -d 5 -p cbr -e 210 -c 1 -i 29 -a 1
- -t 0.31172 -s 3 -d 5 -p cbr -e 210 -c 1 -i 29 -a 1
h -t 0.31172 -s 3 -d 5 -p cbr -e 210 -c 1 -i 29 -a 1
r -t 0.31258 -s 3 -d 5 -p cbr -e 210 -c 1 -i 15 -a 1
+ -t 0.31375 -s 1 -d 2 -p cbr -e 210 -c 1 -i 59 -a 1
- -t 0.31375 -s 1 -d 2 -p cbr -e 210 -c 1 -i 59 -a 1
h -t 0.31375 -s 1 -d 2 -p cbr -e 210 -c 1 -i 59 -a 1
r -t 0.31461 -s 1 -d 2 -p cbr -e 210 -c 1 -i 44 -a 1
+ -t 0.31461 -s 2 -d 3 -p cbr -e 210 -c 1 -i 44 -a 1
- -t 0.31461 -s 2 -d 3 -p cbr -e 210 -c 1 -i 44 -a 1
h -t 0.31461 -s 2 -d 3 -p cbr -e 210 -c 1 -i 44 -a 1
r -t 0.31547 -s 2 -d 3 -p cbr -e 210 -c 1 -i 30 -a 1
+ -t 0.31547 -s 3 -d 5 -p cbr -e 210 -c 1 -i 30 -a 1
- -t 0.31547 -s 3 -d 5 -p cbr -e 210 -c 1 -i 30 -a 1
h -t 0.31547 -s 3 -d 5 -p cbr -e 210 -c 1 -i 30 -a 1
r -t 0.31633 -s 3 -d 5 -p cbr -e 210 -c 1 -i 16 -a 1
+ -t 0.3175 -s 1 -d 2 -p cbr -e 210 -c 1 -i 60 -a 1
- -t 0.3175 -s 1 -d 2 -p cbr -e 210 -c 1 -i 60 -a 1
h -t 0.3175 -s 1 -d 2 -p cbr -e 210 -c 1 -i 60 -a 1
r -t 0.31836 -s 1 -d 2 -p cbr -e 210 -c 1 -i 45 -a 1
+ -t 0.31836 -s 2 -d 3 -p cbr -e 210 -c 1 -i 45 -a 1
- -t 0.31836 -s 2 -d 3 -p cbr -e 210 -c 1 -i 45 -a 1
h -t 0.31836 -s 2 -d 3 -p cbr -e 210 -c 1 -i 45 -a 1
r -t 0.31922 -s 2 -d 3 -p cbr -e 210 -c 1 -i 31 -a 1
+ -t 0.31922 -s 3 -d 5 -p cbr -e 210 -c 1 -i 31 -a 1
- -t 0.31922 -s 3 -d 5 -p cbr -e 210 -c 1 -i 31 -a 1
h -t 0.31922 -s 3 -d 5 -p cbr -e 210 -c 1 -i 31 -a 1
r -t 0.32008 -s 3 -d 5 -p cbr -e 210 -c 1 -i 17 -a 1
+ -t 0.32125 -s 1 -d 2 -p cbr -e 210 -c 1 -i 61 -a 1
- -t 0.32125 -s 1 -d 2 -p cbr -e 210 -c 1 -i 61 -a 1
h -t 0.32125 -s 1 -d 2 -p cbr -e 210 -c 1 -i 61 -a 1
r -t 0.32211 -s 1 -d 2 -p cbr -e 210 -c 1 -i 46 -a 1
+ -t 0.32211 -s 2 -d 3 -p cbr -e 210 -c 1 -i 46 -a 1
- -t 0.32211 -s 2 -d 3 -p cbr -e 210 -c 1 -i 46 -a 1
h -t 0.32211 -s 2 -d 3 -p cbr -e 210 -c 1 -i 46 -a 1
r -t 0.32297 -s 2 -d 3 -p cbr -e 210 -c 1 -i 32 -a 1
+ -t 0.32297 -s 3 -d 5 -p cbr -e 210 -c 1 -i 32 -a 1
- -t 0.32297 -s 3 -d 5 -p cbr -e 210 -c 1 -i 32 -a 1
h -t 0.32297 -s 3 -d 5 -p cbr -e 210 -c 1 -i 32 -a 1
r -t 0.32383 -s 3 -d 5 -p cbr -e 210 -c 1 -i 18 -a 1
+ -t 0.325 -s 1 -d 2 -p cbr -e 210 -c 1 -i 62 -a 1
- -t 0.325 -s 1 -d 2 -p cbr -e 210 -c 1 -i 62 -a 1
h -t 0.325 -s 1 -d 2 -p cbr -e 210 -c 1 -i 62 -a 1
r -t 0.32586 -s 1 -d 2 -p cbr -e 210 -c 1 -i 47 -a 1
+ -t 0.32586 -s 2 -d 3 -p cbr -e 210 -c 1 -i 47 -a 1
- -t 0.32586 -s 2 -d 3 -p cbr -e 210 -c 1 -i 47 -a 1
h -t 0.32586 -s 2 -d 3 -p cbr -e 210 -c 1 -i 47 -a 1
r -t 0.32672 -s 2 -d 3 -p cbr -e 210 -c 1 -i 33 -a 1
+ -t 0.32672 -s 3 -d 5 -p cbr -e 210 -c 1 -i 33 -a 1
- -t 0.32672 -s 3 -d 5 -p cbr -e 210 -c 1 -i 33 -a 1
h -t 0.32672 -s 3 -d 5 -p cbr -e 210 -c 1 -i 33 -a 1
r -t 0.32758 -s 3 -d 5 -p cbr -e 210 -c 1 -i 19 -a 1
+ -t 0.32875 -s 1 -d 2 -p cbr -e 210 -c 1 -i 63 -a 1
- -t 0.32875 -s 1 -d 2 -p cbr -e 210 -c 1 -i 63 -a 1
h -t 0.32875 -s 1 -d 2 -p cbr -e 210 -c 1 -i 63 -a 1
r -t 0.32961 -s 1 -d 2 -p cbr -e 210 -c 1 -i 48 -a 1
+ -t 0.32961 -s 2 -d 3 -p cbr -e 210 -c 1 -i 48 -a 1
- -t 0.32961 -s 2 -d 3 -p cbr -e 210 -c 1 -i 48 -a 1
h -t 0.32961 -s 2 -d 3 -p cbr -e 210 -c 1 -i 48 -a 1
r -t 0.33047 -s 2 -d 3 -p cbr -e 210 -c 1 -i 34 -a 1
+ -t 0.33047 -s 3 -d 5 -p cbr -e 210 -c 1 -i 34 -a 1
- -t 0.33047 -s 3 -d 5 -p cbr -e 210 -c 1 -i 34 -a 1
h -t 0.33047 -s 3 -d 5 -p cbr -e 210 -c 1 -i 34 -a 1
r -t 0.33133 -s 3 -d 5 -p cbr -e 210 -c 1 -i 20 -a 1
+ -t 0.3325 -s 1 -d 2 -p cbr -e 210 -c 1 -i 64 -a 1
- -t 0.3325 -s 1 -d 2 -p cbr -e 210 -c 1 -i 64 -a 1
h -t 0.3325 -s 1 -d 2 -p cbr -e 210 -c 1 -i 64 -a 1
r -t 0.33336 -s 1 -d 2 -p cbr -e 210 -c 1 -i 49 -a 1
+ -t 0.33336 -s 2 -d 3 -p cbr -e 210 -c 1 -i 49 -a 1
- -t 0.33336 -s 2 -d 3 -p cbr -e 210 -c 1 -i 49 -a 1
h -t 0.33336 -s 2 -d 3 -p cbr -e 210 -c 1 -i 49 -a 1
r -t 0.33422 -s 2 -d 3 -p cbr -e 210 -c 1 -i 35 -a 1
+ -t 0.33422 -s 3 -d 5 -p cbr -e 210 -c 1 -i 35 -a 1
- -t 0.33422 -s 3 -d 5 -p cbr -e 210 -c 1 -i 35 -a 1
h -t 0.33422 -s 3 -d 5 -p cbr -e 210 -c 1 -i 35 -a 1
r -t 0.33508 -s 3 -d 5 -p cbr -e 210 -c 1 -i 21 -a 1
+ -t 0.33625 -s 1 -d 2 -p cbr -e 210 -c 1 -i 65 -a 1