V -t * -v 1.0a5 -a 1 -c 1 -F 1 -M 2
c -t * -i 0 -n black
N -t * -S 0 -n {TCP session  between node 0.0 and node 4.0} -p TCP  -m {}
N -t * -S 0 -h 19
N -t * -F 0 -M 0 -n tcp
N -t * -F 0 -M 1 -n ack
A -t * -n 1 -p 0 -o 255 -c 15 -a 1
A -t * -h 1 -m 127 -s 8
n -t * -a 4 -s 4 -S UP -v circle -c black
n -t * -a 0 -s 0 -S UP -v circle -c black
n -t * -a 5 -s 5 -S UP -v circle -c red
n -t * -a 1 -s 1 -S UP -v circle -c red
n -t * -a 2 -s 2 -S UP -v rectangular -c blue
n -t * -a 3 -s 3 -S UP -v rectangular -c blue
l -t * -s 0 -d 2 -S UP -r 500000 -D 0.050000000000000003 -c black -o right-down
l -t * -s 1 -d 2 -S UP -r 500000 -D 0.050000000000000003 -c black -o right-up
l -t * -s 2 -d 3 -S UP -r 500000 -D 0.050000000000000003 -c black -o right
l -t * -s 3 -d 4 -S UP -r 500000 -D 0.050000000000000003 -c black -o right-up
l -t * -s 3 -d 5 -S UP -r 500000 -D 0.050000000000000003 -c black -o right-down
q -t * -s 3 -d 2 -a 0.5
q -t * -s 2 -d 3 -a 0.5
a -t 0.00000000000000000 -s 0 -d 4 -n tcp
f -t 0.00000000000000000 -s 0 -d 4 -n cwnd_ -a tcp -v 4.000000 -T v
f -t 0.00000000000000000 -s 0 -d 4 -n cwnd_ -a tcp -v 4.000000 -o 4.000000 -T v
v -t 0.00000000000000000 monitor_agent 0 tcp
n -t 0 -s 0 -S DLABEL -l Sliding-W-sender -L ""
n -t 0 -s 1 -S DLABEL -l CBR-sender -L ""
n -t 0 -s 4 -S DLABEL -l Sliding-W-receiver -L ""
n -t 0 -s 5 -S DLABEL -l CBR-receiver -L ""
v -t 0 sim_annotation 0 1 Normal operation of <Sliding Window> with window size, 4
+ -t 0.1 -s 0 -d 2 -p tcp -e 1000 -c 0 -i 0 -a 0 -S 0 -f 0 -m 0 -y {0 0}
- -t 0.1 -s 0 -d 2 -p tcp -e 1000 -c 0 -i 0 -a 0 -S 0 -y {0 0}
h -t 0.1 -s 0 -d 2 -p tcp -e 1000 -c 0 -i 0 -a 0 -S 0 -y {-1 -1}
+ -t 0.1 -s 0 -d 2 -p tcp -e 1000 -c 0 -i 1 -a 0 -S 0 -f 0 -m 0 -y {1 1}
+ -t 0.1 -s 0 -d 2 -p tcp -e 1000 -c 0 -i 2 -a 0 -S 0 -f 0 -m 0 -y {2 2}
+ -t 0.1 -s 0 -d 2 -p tcp -e 1000 -c 0 -i 3 -a 0 -S 0 -f 0 -m 0 -y {3 3}
+ -t 0.1 -s 1 -d 2 -p cbr -e 500 -c 1 -i 4 -a 1
- -t 0.1 -s 1 -d 2 -p cbr -e 500 -c 1 -i 4 -a 1
h -t 0.1 -s 1 -d 2 -p cbr -e 500 -c 1 -i 4 -a 1
v -t 0.10000000000000001 sim_annotation 0.10000000000000001 2 FTP starts at 0.1
v -t 0.10000000000000001 sim_annotation 0.10000000000000001 3 CBR starts at 0.1
v -t 0.11 sim_annotation 0.11 4 Send Packet_0,1,2,3	: window size, 4
- -t 0.116 -s 0 -d 2 -p tcp -e 1000 -c 0 -i 1 -a 0 -S 0 -y {1 1}
h -t 0.116 -s 0 -d 2 -p tcp -e 1000 -c 0 -i 1 -a 0 -S 0 -y {-1 -1}
- -t 0.132 -s 0 -d 2 -p tcp -e 1000 -c 0 -i 2 -a 0 -S 0 -y {2 2}
h -t 0.132 -s 0 -d 2 -p tcp -e 1000 -c 0 -i 2 -a 0 -S 0 -y {-1 -1}
- -t 0.148 -s 0 -d 2 -p tcp -e 1000 -c 0 -i 3 -a 0 -S 0 -y {3 3}
h -t 0.148 -s 0 -d 2 -p tcp -e 1000 -c 0 -i 3 -a 0 -S 0 -y {-1 -1}
+ -t 0.15 -s 1 -d 2 -p cbr -e 500 -c 1 -i 5 -a 1
- -t 0.15 -s 1 -d 2 -p cbr -e 500 -c 1 -i 5 -a 1
h -t 0.15 -s 1 -d 2 -p cbr -e 500 -c 1 -i 5 -a 1
r -t 0.158 -s 1 -d 2 -p cbr -e 500 -c 1 -i 4 -a 1
+ -t 0.158 -s 2 -d 3 -p cbr -e 500 -c 1 -i 4 -a 1
- -t 0.158 -s 2 -d 3 -p cbr -e 500 -c 1 -i 4 -a 1
h -t 0.158 -s 2 -d 3 -p cbr -e 500 -c 1 -i 4 -a 1
r -t 0.166 -s 0 -d 2 -p tcp -e 1000 -c 0 -i 0 -a 0 -S 0 -y {0 0}
+ -t 0.166 -s 2 -d 3 -p tcp -e 1000 -c 0 -i 0 -a 0 -S 0 -y {0 0}
- -t 0.166 -s 2 -d 3 -p tcp -e 1000 -c 0 -i 0 -a 0 -S 0 -y {0 0}
h -t 0.166 -s 2 -d 3 -p tcp -e 1000 -c 0 -i 0 -a 0 -S 0 -y {-1 -1}
r -t 0.182 -s 0 -d 2 -p tcp -e 1000 -c 0 -i 1 -a 0 -S 0 -y {1 1}
+ -t 0.182 -s 2 -d 3 -p tcp -e 1000 -c 0 -i 1 -a 0 -S 0 -y {1 1}
- -t 0.182 -s 2 -d 3 -p tcp -e 1000 -c 0 -i 1 -a 0 -S 0 -y {1 1}
h -t 0.182 -s 2 -d 3 -p tcp -e 1000 -c 0 -i 1 -a 0 -S 0 -y {-1 -1}
r -t 0.198 -s 0 -d 2 -p tcp -e 1000 -c 0 -i 2 -a 0 -S 0 -y {2 2}
+ -t 0.198 -s 2 -d 3 -p tcp -e 1000 -c 0 -i 2 -a 0 -S 0 -y {2 2}
- -t 0.198 -s 2 -d 3 -p tcp -e 1000 -c 0 -i 2 -a 0 -S 0 -y {2 2}
h -t 0.198 -s 2 -d 3 -p tcp -e 1000 -c 0 -i 2 -a 0 -S 0 -y {-1 -1}
+ -t 0.2 -s 1 -d 2 -p cbr -e 500 -c 1 -i 6 -a 1
- -t 0.2 -s 1 -d 2 -p cbr -e 500 -c 1 -i 6 -a 1
h -t 0.2 -s 1 -d 2 -p cbr -e 500 -c 1 -i 6 -a 1
r -t 0.208 -s 1 -d 2 -p cbr -e 500 -c 1 -i 5 -a 1
+ -t 0.208 -s 2 -d 3 -p cbr -e 500 -c 1 -i 5 -a 1
r -t 0.214 -s 0 -d 2 -p tcp -e 1000 -c 0 -i 3 -a 0 -S 0 -y {3 3}
+ -t 0.214 -s 2 -d 3 -p tcp -e 1000 -c 0 -i 3 -a 0 -S 0 -y {3 3}
- -t 0.214 -s 2 -d 3 -p cbr -e 500 -c 1 -i 5 -a 1
h -t 0.214 -s 2 -d 3 -p cbr -e 500 -c 1 -i 5 -a 1
r -t 0.216 -s 2 -d 3 -p cbr -e 500 -c 1 -i 4 -a 1
+ -t 0.216 -s 3 -d 5 -p cbr -e 500 -c 1 -i 4 -a 1
- -t 0.216 -s 3 -d 5 -p cbr -e 500 -c 1 -i 4 -a 1
h -t 0.216 -s 3 -d 5 -p cbr -e 500 -c 1 -i 4 -a 1
- -t 0.222 -s 2 -d 3 -p tcp -e 1000 -c 0 -i 3 -a 0 -S 0 -y {3 3}
h -t 0.222 -s 2 -d 3 -p tcp -e 1000 -c 0 -i 3 -a 0 -S 0 -y {-1 -1}
r -t 0.232 -s 2 -d 3 -p tcp -e 1000 -c 0 -i 0 -a 0 -S 0 -y {0 0}
+ -t 0.232 -s 3 -d 4 -p tcp -e 1000 -c 0 -i 0 -a 0 -S 0 -y {0 0}
- -t 0.232 -s 3 -d 4 -p tcp -e 1000 -c 0 -i 0 -a 0 -S 0 -y {0 0}
h -t 0.232 -s 3 -d 4 -p tcp -e 1000 -c 0 -i 0 -a 0 -S 0 -y {-1 -1}
r -t 0.248 -s 2 -d 3 -p tcp -e 1000 -c 0 -i 1 -a 0 -S 0 -y {1 1}
+ -t 0.248 -s 3 -d 4 -p tcp -e 1000 -c 0 -i 1 -a 0 -S 0 -y {1 1}
- -t 0.248 -s 3 -d 4 -p tcp -e 1000 -c 0 -i 1 -a 0 -S 0 -y {1 1}
h -t 0.248 -s 3 -d 4 -p tcp -e 1000 -c 0 -i 1 -a 0 -S 0 -y {-1 -1}
+ -t 0.25 -s 1 -d 2 -p cbr -e 500 -c 1 -i 7 -a 1
- -t 0.25 -s 1 -d 2 -p cbr -e 500 -c 1 -i 7 -a 1
h -t 0.25 -s 1 -d 2 -p cbr -e 500 -c 1 -i 7 -a 1
r -t 0.258 -s 1 -d 2 -p cbr -e 500 -c 1 -i 6 -a 1
+ -t 0.258 -s 2 -d 3 -p cbr -e 500 -c 1 -i 6 -a 1
- -t 0.258 -s 2 -d 3 -p cbr -e 500 -c 1 -i 6 -a 1
h -t 0.258 -s 2 -d 3 -p cbr -e 500 -c 1 -i 6 -a 1
r -t 0.264 -s 2 -d 3 -p tcp -e 1000 -c 0 -i 2 -a 0 -S 0 -y {2 2}
+ -t 0.264 -s 3 -d 4 -p tcp -e 1000 -c 0 -i 2 -a 0 -S 0 -y {2 2}
- -t 0.264 -s 3 -d 4 -p tcp -e 1000 -c 0 -i 2 -a 0 -S 0 -y {2 2}
h -t 0.264 -s 3 -d 4 -p tcp -e 1000 -c 0 -i 2 -a 0 -S 0 -y {-1 -1}
r -t 0.272 -s 2 -d 3 -p cbr -e 500 -c 1 -i 5 -a 1
+ -t 0.272 -s 3 -d 5 -p cbr -e 500 -c 1 -i 5 -a 1
- -t 0.272 -s 3 -d 5 -p cbr -e 500 -c 1 -i 5 -a 1
h -t 0.272 -s 3 -d 5 -p cbr -e 500 -c 1 -i 5 -a 1
r -t 0.274 -s 3 -d 5 -p cbr -e 500 -c 1 -i 4 -a 1
r -t 0.288 -s 2 -d 3 -p tcp -e 1000 -c 0 -i 3 -a 0 -S 0 -y {3 3}
+ -t 0.288 -s 3 -d 4 -p tcp -e 1000 -c 0 -i 3 -a 0 -S 0 -y {3 3}
- -t 0.288 -s 3 -d 4 -p tcp -e 1000 -c 0 -i 3 -a 0 -S 0 -y {3 3}
h -t 0.288 -s 3 -d 4 -p tcp -e 1000 -c 0 -i 3 -a 0 -S 0 -y {-1 -1}
r -t 0.298 -s 3 -d 4 -p tcp -e 1000 -c 0 -i 0 -a 0 -S 0 -y {0 0}
+ -t 0.298 -s 4 -d 3 -p ack -e 40 -c 0 -i 8 -a 0 -S 0 -y {0 0}
- -t 0.298 -s 4 -d 3 -p ack -e 40 -c 0 -i 8 -a 0 -S 0 -y {0 0}
h -t 0.298 -s 4 -d 3 -p ack -e 40 -c 0 -i 8 -a 0 -S 0 -y {-1 -1}
+ -t 0.3 -s 1 -d 2 -p cbr -e 500 -c 1 -i 9 -a 1
- -t 0.3 -s 1 -d 2 -p cbr -e 500 -c 1 -i 9 -a 1
h -t 0.3 -s 1 -d 2 -p cbr -e 500 -c 1 -i 9 -a 1
r -t 0.308 -s 1 -d 2 -p cbr -e 500 -c 1 -i 7 -a 1
+ -t 0.308 -s 2 -d 3 -p cbr -e 500 -c 1 -i 7 -a 1
- -t 0.308 -s 2 -d 3 -p cbr -e 500 -c 1 -i 7 -a 1
h -t 0.308 -s 2 -d 3 -p cbr -e 500 -c 1 -i 7 -a 1
r -t 0.314 -s 3 -d 4 -p tcp -e 1000 -c 0 -i 1 -a 0 -S 0 -y {1 1}
+ -t 0.314 -s 4 -d 3 -p ack -e 40 -c 0 -i 10 -a 0 -S 0 -y {1 1}
- -t 0.314 -s 4 -d 3 -p ack -e 40 -c 0 -i 10 -a 0 -S 0 -y {1 1}
h -t 0.314 -s 4 -d 3 -p ack -e 40 -c 0 -i 10 -a 0 -S 0 -y {-1 -1}
r -t 0.316 -s 2 -d 3 -p cbr -e 500 -c 1 -i 6 -a 1
+ -t 0.316 -s 3 -d 5 -p cbr -e 500 -c 1 -i 6 -a 1
- -t 0.316 -s 3 -d 5 -p cbr -e 500 -c 1 -i 6 -a 1
h -t 0.316 -s 3 -d 5 -p cbr -e 500 -c 1 -i 6 -a 1
v -t 0.32000000000000001 sim_annotation 0.32000000000000001 5 Ack_0,1,2,3
r -t 0.33 -s 3 -d 4 -p tcp -e 1000 -c 0 -i 2 -a 0 -S 0 -y {2 2}
+ -t 0.33 -s 4 -d 3 -p ack -e 40 -c 0 -i 11 -a 0 -S 0 -y {2 2}
- -t 0.33 -s 4 -d 3 -p ack -e 40 -c 0 -i 11 -a 0 -S 0 -y {2 2}
h -t 0.33 -s 4 -d 3 -p ack -e 40 -c 0 -i 11 -a 0 -S 0 -y {-1 -1}
r -t 0.33 -s 3 -d 5 -p cbr -e 500 -c 1 -i 5 -a 1
r -t 0.34864 -s 4 -d 3 -p ack -e 40 -c 0 -i 8 -a 0 -S 0 -y {0 0}
+ -t 0.34864 -s 3 -d 2 -p ack -e 40 -c 0 -i 8 -a 0 -S 0 -y {0 0}
- -t 0.34864 -s 3 -d 2 -p ack -e 40 -c 0 -i 8 -a 0 -S 0 -y {0 0}
h -t 0.34864 -s 3 -d 2 -p ack -e 40 -c 0 -i 8 -a 0 -S 0 -y {-1 -1}
+ -t 0.35 -s 1 -d 2 -p cbr -e 500 -c 1 -i 12 -a 1
- -t 0.35 -s 1 -d 2 -p cbr -e 500 -c 1 -i 12 -a 1
h -t 0.35 -s 1 -d 2 -p cbr -e 500 -c 1 -i 12 -a 1
r -t 0.354 -s 3 -d 4 -p tcp -e 1000 -c 0 -i 3 -a 0 -S 0 -y {3 3}
+ -t 0.354 -s 4 -d 3 -p ack -e 40 -c 0 -i 13 -a 0 -S 0 -y {3 3}
- -t 0.354 -s 4 -d 3 -p ack -e 40 -c 0 -i 13 -a 0 -S 0 -y {3 3}
h -t 0.354 -s 4 -d 3 -p ack -e 40 -c 0 -i 13 -a 0 -S 0 -y {-1 -1}
r -t 0.358 -s 1 -d 2 -p cbr -e 500 -c 1 -i 9 -a 1
+ -t 0.358 -s 2 -d 3 -p cbr -e 500 -c 1 -i 9 -a 1
- -t 0.358 -s 2 -d 3 -p cbr -e 500 -c 1 -i 9 -a 1
h -t 0.358 -s 2 -d 3 -p cbr -e 500 -c 1 -i 9 -a 1
r -t 0.36464 -s 4 -d 3 -p ack -e 40 -c 0 -i 10 -a 0 -S 0 -y {1 1}
+ -t 0.36464 -s 3 -d 2 -p ack -e 40 -c 0 -i 10 -a 0 -S 0 -y {1 1}
- -t 0.36464 -s 3 -d 2 -p ack -e 40 -c 0 -i 10 -a 0 -S 0 -y {1 1}
h -t 0.36464 -s 3 -d 2 -p ack -e 40 -c 0 -i 10 -a 0 -S 0 -y {-1 -1}
r -t 0.366 -s 2 -d 3 -p cbr -e 500 -c 1 -i 7 -a 1
+ -t 0.366 -s 3 -d 5 -p cbr -e 500 -c 1 -i 7 -a 1
- -t 0.366 -s 3 -d 5 -p cbr -e 500 -c 1 -i 7 -a 1
h -t 0.366 -s 3 -d 5 -p cbr -e 500 -c 1 -i 7 -a 1
r -t 0.374 -s 3 -d 5 -p cbr -e 500 -c 1 -i 6 -a 1
r -t 0.38064 -s 4 -d 3 -p ack -e 40 -c 0 -i 11 -a 0 -S 0 -y {2 2}
+ -t 0.38064 -s 3 -d 2 -p ack -e 40 -c 0 -i 11 -a 0 -S 0 -y {2 2}
- -t 0.38064 -s 3 -d 2 -p ack -e 40 -c 0 -i 11 -a 0 -S 0 -y {2 2}
h -t 0.38064 -s 3 -d 2 -p ack -e 40 -c 0 -i 11 -a 0 -S 0 -y {-1 -1}
r -t 0.39928 -s 3 -d 2 -p ack -e 40 -c 0 -i 8 -a 0 -S 0 -y {0 0}
+ -t 0.39928 -s 2 -d 0 -p ack -e 40 -c 0 -i 8 -a 0 -S 0 -y {0 0}
- -t 0.39928 -s 2 -d 0 -p ack -e 40 -c 0 -i 8 -a 0 -S 0 -f 0 -m 1 -y {0 0}
h -t 0.39928 -s 2 -d 0 -p ack -e 40 -c 0 -i 8 -a 0 -S 0 -y {-1 -1}
+ -t 0.4 -s 1 -d 2 -p cbr -e 500 -c 1 -i 14 -a 1
- -t 0.4 -s 1 -d 2 -p cbr -e 500 -c 1 -i 14 -a 1
h -t 0.4 -s 1 -d 2 -p cbr -e 500 -c 1 -i 14 -a 1
r -t 0.40464 -s 4 -d 3 -p ack -e 40 -c 0 -i 13 -a 0 -S 0 -y {3 3}
+ -t 0.40464 -s 3 -d 2 -p ack -e 40 -c 0 -i 13 -a 0 -S 0 -y {3 3}
- -t 0.40464 -s 3 -d 2 -p ack -e 40 -c 0 -i 13 -a 0 -S 0 -y {3 3}
h -t 0.40464 -s 3 -d 2 -p ack -e 40 -c 0 -i 13 -a 0 -S 0 -y {-1 -1}
r -t 0.408 -s 1 -d 2 -p cbr -e 500 -c 1 -i 12 -a 1
+ -t 0.408 -s 2 -d 3 -p cbr -e 500 -c 1 -i 12 -a 1
- -t 0.408 -s 2 -d 3 -p cbr -e 500 -c 1 -i 12 -a 1
h -t 0.408 -s 2 -d 3 -p cbr -e 500 -c 1 -i 12 -a 1
r -t 0.41528 -s 3 -d 2 -p ack -e 40 -c 0 -i 10 -a 0 -S 0 -y {1 1}
+ -t 0.41528 -s 2 -d 0 -p ack -e 40 -c 0 -i 10 -a 0 -S 0 -y {1 1}
- -t 0.41528 -s 2 -d 0 -p ack -e 40 -c 0 -i 10 -a 0 -S 0 -f 0 -m 1 -y {1 1}
h -t 0.41528 -s 2 -d 0 -p ack -e 40 -c 0 -i 10 -a 0 -S 0 -y {-1 -1}
r -t 0.416 -s 2 -d 3 -p cbr -e 500 -c 1 -i 9 -a 1
+ -t 0.416 -s 3 -d 5 -p cbr -e 500 -c 1 -i 9 -a 1
- -t 0.416 -s 3 -d 5 -p cbr -e 500 -c 1 -i 9 -a 1
h -t 0.416 -s 3 -d 5 -p cbr -e 500 -c 1 -i 9 -a 1
r -t 0.424 -s 3 -d 5 -p cbr -e 500 -c 1 -i 7 -a 1
r -t 0.43128 -s 3 -d 2 -p ack -e 40 -c 0 -i 11 -a 0 -S 0 -y {2 2}
+ -t 0.43128 -s 2 -d 0 -p ack -e 40 -c 0 -i 11 -a 0 -S 0 -y {2 2}
- -t 0.43128 -s 2 -d 0 -p ack -e 40 -c 0 -i 11 -a 0 -S 0 -f 0 -m 1 -y {2 2}
h -t 0.43128 -s 2 -d 0 -p ack -e 40 -c 0 -i 11 -a 0 -S 0 -y {-1 -1}
r -t 0.44992 -s 2 -d 0 -p ack -e 40 -c 0 -i 8 -a 0 -S 0 -y {0 0}
+ -t 0.44992 -s 0 -d 2 -p tcp -e 1000 -c 0 -i 15 -a 0 -S 0 -f 0 -m 0 -y {4 4}
- -t 0.44992 -s 0 -d 2 -p tcp -e 1000 -c 0 -i 15 -a 0 -S 0 -y {4 4}
h -t 0.44992 -s 0 -d 2 -p tcp -e 1000 -c 0 -i 15 -a 0 -S 0 -y {-1 -1}
+ -t 0.45 -s 1 -d 2 -p cbr -e 500 -c 1 -i 16 -a 1
- -t 0.45 -s 1 -d 2 -p cbr -e 500 -c 1 -i 16 -a 1
h -t 0.45 -s 1 -d 2 -p cbr -e 500 -c 1 -i 16 -a 1
r -t 0.45528 -s 3 -d 2 -p ack -e 40 -c 0 -i 13 -a 0 -S 0 -y {3 3}
+ -t 0.45528 -s 2 -d 0 -p ack -e 40 -c 0 -i 13 -a 0 -S 0 -y {3 3}
- -t 0.45528 -s 2 -d 0 -p ack -e 40 -c 0 -i 13 -a 0 -S 0 -f 0 -m 1 -y {3 3}
h -t 0.45528 -s 2 -d 0 -p ack -e 40 -c 0 -i 13 -a 0 -S 0 -y {-1 -1}
r -t 0.458 -s 1 -d 2 -p cbr -e 500 -c 1 -i 14 -a 1
+ -t 0.458 -s 2 -d 3 -p cbr -e 500 -c 1 -i 14 -a 1
- -t 0.458 -s 2 -d 3 -p cbr -e 500 -c 1 -i 14 -a 1
h -t 0.458 -s 2 -d 3 -p cbr -e 500 -c 1 -i 14 -a 1
v -t 0.46000000000000002 sim_annotation 0.46000000000000002 6 Send Packet_4,5,6,7	: window size, 4
r -t 0.46592 -s 2 -d 0 -p ack -e 40 -c 0 -i 10 -a 0 -S 0 -y {1 1}
+ -t 0.46592 -s 0 -d 2 -p tcp -e 1000 -c 0 -i 17 -a 0 -S 0 -f 0 -m 0 -y {5 5}
- -t 0.46592 -s 0 -d 2 -p tcp -e 1000 -c 0 -i 17 -a 0 -S 0 -y {5 5}
h -t 0.46592 -s 0 -d 2 -p tcp -e 1000 -c 0 -i 17 -a 0 -S 0 -y {-1 -1}
r -t 0.466 -s 2 -d 3 -p cbr -e 500 -c 1 -i 12 -a 1
+ -t 0.466 -s 3 -d 5 -p cbr -e 500 -c 1 -i 12 -a 1
- -t 0.466 -s 3 -d 5 -p cbr -e 500 -c 1 -i 12 -a 1
h -t 0.466 -s 3 -d 5 -p cbr -e 500 -c 1 -i 12 -a 1
r -t 0.474 -s 3 -d 5 -p cbr -e 500 -c 1 -i 9 -a 1
r -t 0.48192 -s 2 -d 0 -p ack -e 40 -c 0 -i 11 -a 0 -S 0 -y {2 2}
+ -t 0.48192 -s 0 -d 2 -p tcp -e 1000 -c 0 -i 18 -a 0 -S 0 -f 0 -m 0 -y {6 6}
- -t 0.48192 -s 0 -d 2 -p tcp -e 1000 -c 0 -i 18 -a 0 -S 0 -y {6 6}
h -t 0.48192 -s 0 -d 2 -p tcp -e 1000 -c 0 -i 18 -a 0 -S 0 -y {-1 -1}
+ -t 0.5 -s 1 -d 2 -p cbr -e 500 -c 1 -i 19 -a 1
- -t 0.5 -s 1 -d 2 -p cbr -e 500 -c 1 -i 19 -a 1
h -t 0.5 -s 1 -d 2 -p cbr -e 500 -c 1 -i 19 -a 1
r -t 0.50592 -s 2 -d 0 -p ack -e 40 -c 0 -i 13 -a 0 -S 0 -y {3 3}
+ -t 0.50592 -s 0 -d 2 -p tcp -e 1000 -c 0 -i 20 -a 0 -S 0 -f 0 -m 0 -y {7 7}
- -t 0.50592 -s 0 -d 2 -p tcp -e 1000 -c 0 -i 20 -a 0 -S 0 -y {7 7}
h -t 0.50592 -s 0 -d 2 -p tcp -e 1000 -c 0 -i 20 -a 0 -S 0 -y {-1 -1}
r -t 0.508 -s 1 -d 2 -p cbr -e 500 -c 1 -i 16 -a 1
+ -t 0.508 -s 2 -d 3 -p cbr -e 500 -c 1 -i 16 -a 1
- -t 0.508 -s 2 -d 3 -p cbr -e 500 -c 1 -i 16 -a 1
h -t 0.508 -s 2 -d 3 -p cbr -e 500 -c 1 -i 16 -a 1
r -t 0.51592 -s 0 -d 2 -p tcp -e 1000 -c 0 -i 15 -a 0 -S 0 -y {4 4}
+ -t 0.51592 -s 2 -d 3 -p tcp -e 1000 -c 0 -i 15 -a 0 -S 0 -y {4 4}
r -t 0.516 -s 2 -d 3 -p cbr -e 500 -c 1 -i 14 -a 1
+ -t 0.516 -s 3 -d 5 -p cbr -e 500 -c 1 -i 14 -a 1
- -t 0.516 -s 3 -d 5 -p cbr -e 500 -c 1 -i 14 -a 1
h -t 0.516 -s 3 -d 5 -p cbr -e 500 -c 1 -i 14 -a 1
- -t 0.516 -s 2 -d 3 -p tcp -e 1000 -c 0 -i 15 -a 0 -S 0 -y {4 4}
h -t 0.516 -s 2 -d 3 -p tcp -e 1000 -c 0 -i 15 -a 0 -S 0 -y {-1 -1}
r -t 0.524 -s 3 -d 5 -p cbr -e 500 -c 1 -i 12 -a 1
r -t 0.53192 -s 0 -d 2 -p tcp -e 1000 -c 0 -i 17 -a 0 -S 0 -y {5 5}
+ -t 0.53192 -s 2 -d 3 -p tcp -e 1000 -c 0 -i 17 -a 0 -S 0 -y {5 5}
- -t 0.532 -s 2 -d 3 -p tcp -e 1000 -c 0 -i 17 -a 0 -S 0 -y {5 5}
h -t 0.532 -s 2 -d 3 -p tcp -e 1000 -c 0 -i 17 -a 0 -S 0 -y {-1 -1}
r -t 0.54792 -s 0 -d 2 -p tcp -e 1000 -c 0 -i 18 -a 0 -S 0 -y {6 6}
+ -t 0.54792 -s 2 -d 3 -p tcp -e 1000 -c 0 -i 18 -a 0 -S 0 -y {6 6}
- -t 0.548 -s 2 -d 3 -p tcp -e 1000 -c 0 -i 18 -a 0 -S 0 -y {6 6}
h -t 0.548 -s 2 -d 3 -p tcp -e 1000 -c 0 -i 18 -a 0 -S 0 -y {-1 -1}
+ -t 0.55 -s 1 -d 2 -p cbr -e 500 -c 1 -i 21 -a 1
- -t 0.55 -s 1 -d 2 -p cbr -e 500 -c 1 -i 21 -a 1
h -t 0.55 -s 1 -d 2 -p cbr -e 500 -c 1 -i 21 -a 1
r -t 0.558 -s 1 -d 2 -p cbr -e 500 -c 1 -i 19 -a 1
+ -t 0.558 -s 2 -d 3 -p cbr -e 500 -c 1 -i 19 -a 1
- -t 0.564 -s 2 -d 3 -p cbr -e 500 -c 1 -i 19 -a 1
h -t 0.564 -s 2 -d 3 -p cbr -e 500 -c 1 -i 19 -a 1
r -t 0.566 -s 2 -d 3 -p cbr -e 500 -c 1 -i 16 -a 1
+ -t 0.566 -s 3 -d 5 -p cbr -e 500 -c 1 -i 16 -a 1
- -t 0.566 -s 3 -d 5 -p cbr -e 500 -c 1 -i 16 -a 1
h -t 0.566 -s 3 -d 5 -p cbr -e 500 -c 1 -i 16 -a 1
r -t 0.57192 -s 0 -d 2 -p tcp -e 1000 -c 0 -i 20 -a 0 -S 0 -y {7 7}
+ -t 0.57192 -s 2 -d 3 -p tcp -e 1000 -c 0 -i 20 -a 0 -S 0 -y {7 7}
- -t 0.572 -s 2 -d 3 -p tcp -e 1000 -c 0 -i 20 -a 0 -S 0 -y {7 7}
h -t 0.572 -s 2 -d 3 -p tcp -e 1000 -c 0 -i 20 -a 0 -S 0 -y {-1 -1}
r -t 0.574 -s 3 -d 5 -p cbr -e 500 -c 1 -i 14 -a 1
r -t 0.582 -s 2 -d 3 -p tcp -e 1000 -c 0 -i 15 -a 0 -S 0 -y {4 4}
+ -t 0.582 -s 3 -d 4 -p tcp -e 1000 -c 0 -i 15 -a 0 -S 0 -y {4 4}
- -t 0.582 -s 3 -d 4 -p tcp -e 1000 -c 0 -i 15 -a 0 -S 0 -y {4 4}
h -t 0.582 -s 3 -d 4 -p tcp -e 1000 -c 0 -i 15 -a 0 -S 0 -y {-1 -1}
r -t 0.598 -s 2 -d 3 -p tcp -e 1000 -c 0 -i 17 -a 0 -S 0 -y {5 5}
+ -t 0.598 -s 3 -d 4 -p tcp -e 1000 -c 0 -i 17 -a 0 -S 0 -y {5 5}
- -t 0.598 -s 3 -d 4 -p tcp -e 1000 -c 0 -i 17 -a 0 -S 0 -y {5 5}
h -t 0.598 -s 3 -d 4 -p tcp -e 1000 -c 0 -i 17 -a 0 -S 0 -y {-1 -1}
+ -t 0.6 -s 1 -d 2 -p cbr -e 500 -c 1 -i 22 -a 1
- -t 0.6 -s 1 -d 2 -p cbr -e 500 -c 1 -i 22 -a 1
h -t 0.6 -s 1 -d 2 -p cbr -e 500 -c 1 -i 22 -a 1
r -t 0.608 -s 1 -d 2 -p cbr -e 500 -c 1 -i 21 -a 1
+ -t 0.608 -s 2 -d 3 -p cbr -e 500 -c 1 -i 21 -a 1
- -t 0.608 -s 2 -d 3 -p cbr -e 500 -c 1 -i 21 -a 1
h -t 0.608 -s 2 -d 3 -p cbr -e 500 -c 1 -i 21 -a 1
r -t 0.614 -s 2 -d 3 -p tcp -e 1000 -c 0 -i 18 -a 0 -S 0 -y {6 6}
+ -t 0.614 -s 3 -d 4 -p tcp -e 1000 -c 0 -i 18 -a 0 -S 0 -y {6 6}
- -t 0.614 -s 3 -d 4 -p tcp -e 1000 -c 0 -i 18 -a 0 -S 0 -y {6 6}
h -t 0.614 -s 3 -d 4 -p tcp -e 1000 -c 0 -i 18 -a 0 -S 0 -y {-1 -1}
r -t 0.622 -s 2 -d 3 -p cbr -e 500 -c 1 -i 19 -a 1
+ -t 0.622 -s 3 -d 5 -p cbr -e 500 -c 1 -i 19 -a 1
- -t 0.622 -s 3 -d 5 -p cbr -e 500 -c 1 -i 19 -a 1
h -t 0.622 -s 3 -d 5 -p cbr -e 500 -c 1 -i 19 -a 1
r -t 0.624 -s 3 -d 5 -p cbr -e 500 -c 1 -i 16 -a 1
r -t 0.638 -s 2 -d 3 -p tcp -e 1000 -c 0 -i 20 -a 0 -S 0 -y {7 7}
+ -t 0.638 -s 3 -d 4 -p tcp -e 1000 -c 0 -i 20 -a 0 -S 0 -y {7 7}
- -t 0.638 -s 3 -d 4 -p tcp -e 1000 -c 0 -i 20 -a 0 -S 0 -y {7 7}
h -t 0.638 -s 3 -d 4 -p tcp -e 1000 -c 0 -i 20 -a 0 -S 0 -y {-1 -1}
r -t 0.648 -s 3 -d 4 -p tcp -e 1000 -c 0 -i 15 -a 0 -S 0 -y {4 4}
+ -t 0.648 -s 4 -d 3 -p ack -e 40 -c 0 -i 23 -a 0 -S 0 -y {4 4}
- -t 0.648 -s 4 -d 3 -p ack -e 40 -c 0 -i 23 -a 0 -S 0 -y {4 4}
h -t 0.648 -s 4 -d 3 -p ack -e 40 -c 0 -i 23 -a 0 -S 0 -y {-1 -1}
+ -t 0.65 -s 1 -d 2 -p cbr -e 500 -c 1 -i 24 -a 1
- -t 0.65 -s 1 -d 2 -p cbr -e 500 -c 1 -i 24 -a 1
h -t 0.65 -s 1 -d 2 -p cbr -e 500 -c 1 -i 24 -a 1
r -t 0.658 -s 1 -d 2 -p cbr -e 500 -c 1 -i 22 -a 1
+ -t 0.658 -s 2 -d 3 -p cbr -e 500 -c 1 -i 22 -a 1
- -t 0.658 -s 2 -d 3 -p cbr -e 500 -c 1 -i 22 -a 1
h -t 0.658 -s 2 -d 3 -p cbr -e 500 -c 1 -i 22 -a 1
v -t 0.66000000000000003 sim_annotation 0.66000000000000003 7 Ack_4,5,6,7
r -t 0.664 -s 3 -d 4 -p tcp -e 1000 -c 0 -i 17 -a 0 -S 0 -y {5 5}
+ -t 0.664 -s 4 -d 3 -p ack -e 40 -c 0 -i 25 -a 0 -S 0 -y {5 5}
- -t 0.664 -s 4 -d 3 -p ack -e 40 -c 0 -i 25 -a 0 -S 0 -y {5 5}
h -t 0.664 -s 4 -d 3 -p ack -e 40 -c 0 -i 25 -a 0 -S 0 -y {-1 -1}
r -t 0.666 -s 2 -d 3 -p cbr -e 500 -c 1 -i 21 -a 1
+ -t 0.666 -s 3 -d 5 -p cbr -e 500 -c 1 -i 21 -a 1
- -t 0.666 -s 3 -d 5 -p cbr -e 500 -c 1 -i 21 -a 1
h -t 0.666 -s 3 -d 5 -p cbr -e 500 -c 1 -i 21 -a 1
r -t 0.68 -s 3 -d 4 -p tcp -e 1000 -c 0 -i 18 -a 0 -S 0 -y {6 6}
+ -t 0.68 -s 4 -d 3 -p ack -e 40 -c 0 -i 26 -a 0 -S 0 -y {6 6}
- -t 0.68 -s 4 -d 3 -p ack -e 40 -c 0 -i 26 -a 0 -S 0 -y {6 6}
h -t 0.68 -s 4 -d 3 -p ack -e 40 -c 0 -i 26 -a 0 -S 0 -y {-1 -1}
r -t 0.68 -s 3 -d 5 -p cbr -e 500 -c 1 -i 19 -a 1
r -t 0.69864 -s 4 -d 3 -p ack -e 40 -c 0 -i 23 -a 0 -S 0 -y {4 4}
+ -t 0.69864 -s 3 -d 2 -p ack -e 40 -c 0 -i 23 -a 0 -S 0 -y {4 4}
- -t 0.69864 -s 3 -d 2 -p ack -e 40 -c 0 -i 23 -a 0 -S 0 -y {4 4}
h -t 0.69864 -s 3 -d 2 -p ack -e 40 -c 0 -i 23 -a 0 -S 0 -y {-1 -1}
+ -t 0.7 -s 1 -d 2 -p cbr -e 500 -c 1 -i 27 -a 1
- -t 0.7 -s 1 -d 2 -p cbr -e 500 -c 1 -i 27 -a 1
h -t 0.7 -s 1 -d 2 -p cbr -e 500 -c 1 -i 27 -a 1
r -t 0.704 -s 3 -d 4 -p tcp -e 1000 -c 0 -i 20 -a 0 -S 0 -y {7 7}
+ -t 0.704 -s 4 -d 3 -p ack -e 40 -c 0 -i 28 -a 0 -S 0 -y {7 7}
- -t 0.704 -s 4 -d 3 -p ack -e 40 -c 0 -i 28 -a 0 -S 0 -y {7 7}
h -t 0.704 -s 4 -d 3 -p ack -e 40 -c 0 -i 28 -a 0 -S 0 -y {-1 -1}
r -t 0.708 -s 1 -d 2 -p cbr -e 500 -c 1 -i 24 -a 1
+ -t 0.708 -s 2 -d 3 -p cbr -e 500 -c 1 -i 24 -a 1
- -t 0.708 -s 2 -d 3 -p cbr -e 500 -c 1 -i 24 -a 1
h -t 0.708 -s 2 -d 3 -p cbr -e 500 -c 1 -i 24 -a 1
r -t 0.71464 -s 4 -d 3 -p ack -e 40 -c 0 -i 25 -a 0 -S 0 -y {5 5}
+ -t 0.71464 -s 3 -d 2 -p ack -e 40 -c 0 -i 25 -a 0 -S 0 -y {5 5}
- -t 0.71464 -s 3 -d 2 -p ack -e 40 -c 0 -i 25 -a 0 -S 0 -y {5 5}
h -t 0.71464 -s 3 -d 2 -p ack -e 40 -c 0 -i 25 -a 0 -S 0 -y {-1 -1}
r -t 0.716 -s 2 -d 3 -p cbr -e 500 -c 1 -i 22 -a 1
+ -t 0.716 -s 3 -d 5 -p cbr -e 500 -c 1 -i 22 -a 1
- -t 0.716 -s 3 -d 5 -p cbr -e 500 -c 1 -i 22 -a 1
h -t 0.716 -s 3 -d 5 -p cbr -e 500 -c 1 -i 22 -a 1
r -t 0.724 -s 3 -d 5 -p cbr -e 500 -c 1 -i 21 -a 1
r -t 0.73064 -s 4 -d 3 -p ack -e 40 -c 0 -i 26 -a 0 -S 0 -y {6 6}
+ -t 0.73064 -s 3 -d 2 -p ack -e 40 -c 0 -i 26 -a 0 -S 0 -y {6 6}
- -t 0.73064 -s 3 -d 2 -p ack -e 40 -c 0 -i 26 -a 0 -S 0 -y {6 6}
h -t 0.73064 -s 3 -d 2 -p ack -e 40 -c 0 -i 26 -a 0 -S 0 -y {-1 -1}
r -t 0.74928 -s 3 -d 2 -p ack -e 40 -c 0 -i 23 -a 0 -S 0 -y {4 4}
+ -t 0.74928 -s 2 -d 0 -p ack -e 40 -c 0 -i 23 -a 0 -S 0 -y {4 4}
- -t 0.74928 -s 2 -d 0 -p ack -e 40 -c 0 -i 23 -a 0 -S 0 -f 0 -m 1 -y {4 4}
h -t 0.74928 -s 2 -d 0 -p ack -e 40 -c 0 -i 23 -a 0 -S 0 -y {-1 -1}
+ -t 0.75 -s 1 -d 2 -p cbr -e 500 -c 1 -i 29 -a 1
- -t 0.75 -s 1 -d 2 -p cbr -e 500 -c 1 -i 29 -a 1
h -t 0.75 -s 1 -d 2 -p cbr -e 500 -c 1 -i 29 -a 1
r -t 0.75464 -s 4 -d 3 -p ack -e 40 -c 0 -i 28 -a 0 -S 0 -y {7 7}
+ -t 0.75464 -s 3 -d 2 -p ack -e 40 -c 0 -i 28 -a 0 -S 0 -y {7 7}
- -t 0.75464 -s 3 -d 2 -p ack -e 40 -c 0 -i 28 -a 0 -S 0 -y {7 7}
h -t 0.75464 -s 3 -d 2 -p ack -e 40 -c 0 -i 28 -a 0 -S 0 -y {-1 -1}
r -t 0.758 -s 1 -d 2 -p cbr -e 500 -c 1 -i 27 -a 1
+ -t 0.758 -s 2 -d 3 -p cbr -e 500 -c 1 -i 27 -a 1
- -t 0.758 -s 2 -d 3 -p cbr -e 500 -c 1 -i 27 -a 1
h -t 0.758 -s 2 -d 3 -p cbr -e 500 -c 1 -i 27 -a 1
r -t 0.76528 -s 3 -d 2 -p ack -e 40 -c 0 -i 25 -a 0 -S 0 -y {5 5}
+ -t 0.76528 -s 2 -d 0 -p ack -e 40 -c 0 -i 25 -a 0 -S 0 -y {5 5}
- -t 0.76528 -s 2 -d 0 -p ack -e 40 -c 0 -i 25 -a 0 -S 0 -f 0 -m 1 -y {5 5}
h -t 0.76528 -s 2 -d 0 -p ack -e 40 -c 0 -i 25 -a 0 -S 0 -y {-1 -1}
r -t 0.766 -s 2 -d 3 -p cbr -e 500 -c 1 -i 24 -a 1
+ -t 0.766 -s 3 -d 5 -p cbr -e 500 -c 1 -i 24 -a 1
- -t 0.766 -s 3 -d 5 -p cbr -e 500 -c 1 -i 24 -a 1
h -t 0.766 -s 3 -d 5 -p cbr -e 500 -c 1 -i 24 -a 1
r -t 0.774 -s 3 -d 5 -p cbr -e 500 -c 1 -i 22 -a 1
r -t 0.78128 -s 3 -d 2 -p ack -e 40 -c 0 -i 26 -a 0 -S 0 -y {6 6}
+ -t 0.78128 -s 2 -d 0 -p ack -e 40 -c 0 -i 26 -a 0 -S 0 -y {6 6}
- -t 0.78128 -s 2 -d 0 -p ack -e 40 -c 0 -i 26 -a 0 -S 0 -f 0 -m 1 -y {6 6}
h -t 0.78128 -s 2 -d 0 -p ack -e 40 -c 0 -i 26 -a 0 -S 0 -y {-1 -1}
r -t 0.79992 -s 2 -d 0 -p ack -e 40 -c 0 -i 23 -a 0 -S 0 -y {4 4}
+ -t 0.79992 -s 0 -d 2 -p tcp -e 1000 -c 0 -i 30 -a 0 -S 0 -f 0 -m 0 -y {8 8}
- -t 0.79992 -s 0 -d 2 -p tcp -e 1000 -c 0 -i 30 -a 0 -S 0 -y {8 8}
h -t 0.79992 -s 0 -d 2 -p tcp -e 1000 -c 0 -i 30 -a 0 -S 0 -y {-1 -1}
+ -t 0.8 -s 1 -d 2 -p cbr -e 500 -c 1 -i 31 -a 1
- -t 0.8 -s 1 -d 2 -p cbr -e 500 -c 1 -i 31 -a 1
h -t 0.8 -s 1 -d 2 -p cbr -e 500 -c 1 -i 31 -a 1
r -t 0.80528 -s 3 -d 2 -p ack -e 40 -c 0 -i 28 -a 0 -S 0 -y {7 7}
+ -t 0.80528 -s 2 -d 0 -p ack -e 40 -c 0 -i 28 -a 0 -S 0 -y {7 7}
- -t 0.80528 -s 2 -d 0 -p ack -e 40 -c 0 -i 28 -a 0 -S 0 -f 0 -m 1 -y {7 7}
h -t 0.80528 -s 2 -d 0 -p ack -e 40 -c 0 -i 28 -a 0 -S 0 -y {-1 -1}
r -t 0.808 -s 1 -d 2 -p cbr -e 500 -c 1 -i 29 -a 1
+ -t 0.808 -s 2 -d 3 -p cbr -e 500 -c 1 -i 29 -a 1
- -t 0.808 -s 2 -d 3 -p cbr -e 500 -c 1 -i 29 -a 1
h -t 0.808 -s 2 -d 3 -p cbr -e 500 -c 1 -i 29 -a 1
v -t 0.81000000000000005 sim_annotation 0.81000000000000005 8 Send Packet_8,9,10,11   : window size, 4
r -t 0.81592 -s 2 -d 0 -p ack -e 40 -c 0 -i 25 -a 0 -S 0 -y {5 5}
+ -t 0.81592 -s 0 -d 2 -p tcp -e 1000 -c 0 -i 32 -a 0 -S 0 -f 0 -m 0 -y {9 9}
- -t 0.81592 -s 0 -d 2 -p tcp -e 1000 -c 0 -i 32 -a 0 -S 0 -y {9 9}
h -t 0.81592 -s 0 -d 2 -p tcp -e 1000 -c 0 -i 32 -a 0 -S 0 -y {-1 -1}
r -t 0.816 -s 2 -d 3 -p cbr -e 500 -c 1 -i 27 -a 1
+ -t 0.816 -s 3 -d 5 -p cbr -e 500 -c 1 -i 27 -a 1
- -t 0.816 -s 3 -d 5 -p cbr -e 500 -c 1 -i 27 -a 1
h -t 0.816 -s 3 -d 5 -p cbr -e 500 -c 1 -i 27 -a 1
r -t 0.824 -s 3 -d 5 -p cbr -e 500 -c 1 -i 24 -a 1
r -t 0.83192 -s 2 -d 0 -p ack -e 40 -c 0 -i 26 -a 0 -S 0 -y {6 6}
+ -t 0.83192 -s 0 -d 2 -p tcp -e 1000 -c 0 -i 33 -a 0 -S 0 -f 0 -m 0 -y {10 10}
- -t 0.83192 -s 0 -d 2 -p tcp -e 1000 -c 0 -i 33 -a 0 -S 0 -y {10 10}
h -t 0.83192 -s 0 -d 2 -p tcp -e 1000 -c 0 -i 33 -a 0 -S 0 -y {-1 -1}
+ -t 0.85 -s 1 -d 2 -p cbr -e 500 -c 1 -i 34 -a 1
- -t 0.85 -s 1 -d 2 -p cbr -e 500 -c 1 -i 34 -a 1
h -t 0.85 -s 1 -d 2 -p cbr -e 500 -c 1 -i 34 -a 1
r -t 0.85592 -s 2 -d 0 -p ack -e 40 -c 0 -i 28 -a 0 -S 0 -y {7 7}
+ -t 0.85592 -s 0 -d 2 -p tcp -e 1000 -c 0 -i 35 -a 0 -S 0 -f 0 -m 0 -y {11 11}
- -t 0.85592 -s 0 -d 2 -p tcp -e 1000 -c 0 -i 35 -a 0 -S 0 -y {11 11}
h -t 0.85592 -s 0 -d 2 -p tcp -e 1000 -c 0 -i 35 -a 0 -S 0 -y {-1 -1}
r -t 0.858 -s 1 -d 2 -p cbr -e 500 -c 1 -i 31 -a 1
+ -t 0.858 -s 2 -d 3 -p cbr -e 500 -c 1 -i 31 -a 1
- -t 0.858 -s 2 -d 3 -p cbr -e 500 -c 1 -i 31 -a 1
h -t 0.858 -s 2 -d 3 -p cbr -e 500 -c 1 -i 31 -a 1
r -t 0.86592 -s 0 -d 2 -p tcp -e 1000 -c 0 -i 30 -a 0 -S 0 -y {8 8}
+ -t 0.86592 -s 2 -d 3 -p tcp -e 1000 -c 0 -i 30 -a 0 -S 0 -y {8 8}
r -t 0.866 -s 2 -d 3 -p cbr -e 500 -c 1 -i 29 -a 1
+ -t 0.866 -s 3 -d 5 -p cbr -e 500 -c 1 -i 29 -a 1
- -t 0.866 -s 3 -d 5 -p cbr -e 500 -c 1 -i 29 -a 1
h -t 0.866 -s 3 -d 5 -p cbr -e 500 -c 1 -i 29 -a 1
- -t 0.866 -s 2 -d 3 -p tcp -e 1000 -c 0 -i 30 -a 0 -S 0 -y {8 8}
h -t 0.866 -s 2 -d 3 -p tcp -e 1000 -c 0 -i 30 -a 0 -S 0 -y {-1 -1}
r -t 0.874 -s 3 -d 5 -p cbr -e 500 -c 1 -i 27 -a 1
r -t 0.88192 -s 0 -d 2 -p tcp -e 1000 -c 0 -i 32 -a 0 -S 0 -y {9 9}
+ -t 0.88192 -s 2 -d 3 -p tcp -e 1000 -c 0 -i 32 -a 0 -S 0 -y {9 9}
- -t 0.882 -s 2 -d 3 -p tcp -e 1000 -c 0 -i 32 -a 0 -S 0 -y {9 9}
h -t 0.882 -s 2 -d 3 -p tcp -e 1000 -c 0 -i 32 -a 0 -S 0 -y {-1 -1}
r -t 0.89792 -s 0 -d 2 -p tcp -e 1000 -c 0 -i 33 -a 0 -S 0 -y {10 10}
+ -t 0.89792 -s 2 -d 3 -p tcp -e 1000 -c 0 -i 33 -a 0 -S 0 -y {10 10}
- -t 0.898 -s 2 -d 3 -p tcp -e 1000 -c 0 -i 33 -a 0 -S 0 -y {10 10}
h -t 0.898 -s 2 -d 3 -p tcp -e 1000 -c 0 -i 33 -a 0 -S 0 -y {-1 -1}
+ -t 0.9 -s 1 -d 2 -p cbr -e 500 -c 1 -i 36 -a 1
- -t 0.9 -s 1 -d 2 -p cbr -e 500 -c 1 -i 36 -a 1
h -t 0.9 -s 1 -d 2 -p cbr -e 500 -c 1 -i 36 -a 1
r -t 0.908 -s 1 -d 2 -p cbr -e 500 -c 1 -i 34 -a 1
+ -t 0.908 -s 2 -d 3 -p cbr -e 500 -c 1 -i 34 -a 1
- -t 0.914 -s 2 -d 3 -p cbr -e 500 -c 1 -i 34 -a 1
h -t 0.914 -s 2 -d 3 -p cbr -e 500 -c 1 -i 34 -a 1
r -t 0.916 -s 2 -d 3 -p cbr -e 500 -c 1 -i 31 -a 1
+ -t 0.916 -s 3 -d 5 -p cbr -e 500 -c 1 -i 31 -a 1
- -t 0.916 -s 3 -d 5 -p cbr -e 500 -c 1 -i 31 -a 1
h -t 0.916 -s 3 -d 5 -p cbr -e 500 -c 1 -i 31 -a 1
r -t 0.92192 -s 0 -d 2 -p tcp -e 1000 -c 0 -i 35 -a 0 -S 0 -y {11 11}
+ -t 0.92192 -s 2 -d 3 -p tcp -e 1000 -c 0 -i 35 -a 0 -S 0 -y {11 11}
- -t 0.922 -s 2 -d 3 -p tcp -e 1000 -c 0 -i 35 -a 0 -S 0 -y {11 11}
h -t 0.922 -s 2 -d 3 -p tcp -e 1000 -c 0 -i 35 -a 0 -S 0 -y {-1 -1}
r -t 0.924 -s 3 -d 5 -p cbr -e 500 -c 1 -i 29 -a 1
r -t 0.932 -s 2 -d 3 -p tcp -e 1000 -c 0 -i 30 -a 0 -S 0 -y {8 8}
+ -t 0.932 -s 3 -d 4 -p tcp -e 1000 -c 0 -i 30 -a 0 -S 0 -y {8 8}
- -t 0.932 -s 3 -d 4 -p tcp -e 1000 -c 0 -i 30 -a 0 -S 0 -y {8 8}
h -t 0.932 -s 3 -d 4 -p tcp -e 1000 -c 0 -i 30 -a 0 -S 0 -y {-1 -1}
r -t 0.948 -s 2 -d 3 -p tcp -e 1000 -c 0 -i 32 -a 0 -S 0 -y {9 9}
+ -t 0.948 -s 3 -d 4 -p tcp -e 1000 -c 0 -i 32 -a 0 -S 0 -y {9 9}
- -t 0.948 -s 3 -d 4 -p tcp -e 1000 -c 0 -i 32 -a 0 -S 0 -y {9 9}
h -t 0.948 -s 3 -d 4 -p tcp -e 1000 -c 0 -i 32 -a 0 -S 0 -y {-1 -1}
+ -t 0.95 -s 1 -d 2 -p cbr -e 500 -c 1 -i 37 -a 1
- -t 0.95 -s 1 -d 2 -p cbr -e 500 -c 1 -i 37 -a 1
h -t 0.95 -s 1 -d 2 -p cbr -e 500 -c 1 -i 37 -a 1
r -t 0.958 -s 1 -d 2 -p cbr -e 500 -c 1 -i 36 -a 1
+ -t 0.958 -s 2 -d 3 -p cbr -e 500 -c 1 -i 36 -a 1
- -t 0.958 -s 2 -d 3 -p cbr -e 500 -c 1 -i 36 -a 1
h -t 0.958 -s 2 -d 3 -p cbr -e 500 -c 1 -i 36 -a 1
r -t 0.964 -s 2 -d 3 -p tcp -e 1000 -c 0 -i 33 -a 0 -S 0 -y {10 10}
+ -t 0.964 -s 3 -d 4 -p tcp -e 1000 -c 0 -i 33 -a 0 -S 0 -y {10 10}
- -t 0.964 -s 3 -d 4 -p tcp -e 1000 -c 0 -i 33 -a 0 -S 0 -y {10 10}
h -t 0.964 -s 3 -d 4 -p tcp -e 1000 -c 0 -i 33 -a 0 -S 0 -y {-1 -1}
r -t 0.972 -s 2 -d 3 -p cbr -e 500 -c 1 -i 34 -a 1
+ -t 0.972 -s 3 -d 5 -p cbr -e 500 -c 1 -i 34 -a 1
- -t 0.972 -s 3 -d 5 -p cbr -e 500 -c 1 -i 34 -a 1
h -t 0.972 -s 3 -d 5 -p cbr -e 500 -c 1 -i 34 -a 1
r -t 0.974 -s 3 -d 5 -p cbr -e 500 -c 1 -i 31 -a 1
r -t 0.988 -s 2 -d 3 -p tcp -e 1000 -c 0 -i 35 -a 0 -S 0 -y {11 11}
+ -t 0.988 -s 3 -d 4 -p tcp -e 1000 -c 0 -i 35 -a 0 -S 0 -y {11 11}
- -t 0.988 -s 3 -d 4 -p tcp -e 1000 -c 0 -i 35 -a 0 -S 0 -y {11 11}
h -t 0.988 -s 3 -d 4 -p tcp -e 1000 -c 0 -i 35 -a 0 -S 0 -y {-1 -1}
r -t 0.998 -s 3 -d 4 -p tcp -e 1000 -c 0 -i 30 -a 0 -S 0 -y {8 8}
+ -t 0.998 -s 4 -d 3 -p ack -e 40 -c 0 -i 38 -a 0 -S 0 -y {8 8}
- -t 0.998 -s 4 -d 3 -p ack -e 40 -c 0 -i 38 -a 0 -S 0 -y {8 8}
h -t 0.998 -s 4 -d 3 -p ack -e 40 -c 0 -i 38 -a 0 -S 0 -y {-1 -1}
v -t 1 sim_annotation 1 9 Ack_8,9,10,11
+ -t 1 -s 1 -d 2 -p cbr -e 500 -c 1 -i 39 -a 1
- -t 1 -s 1 -d 2 -p cbr -e 500 -c 1 -i 39 -a 1
h -t 1 -s 1 -d 2 -p cbr -e 500 -c 1 -i 39 -a 1
r -t 1.008 -s 1 -d 2 -p cbr -e 500 -c 1 -i 37 -a 1
+ -t 1.008 -s 2 -d 3 -p cbr -e 500 -c 1 -i 37 -a 1
- -t 1.008 -s 2 -d 3 -p cbr -e 500 -c 1 -i 37 -a 1
h -t 1.008 -s 2 -d 3 -p cbr -e 500 -c 1 -i 37 -a 1
r -t 1.014 -s 3 -d 4 -p tcp -e 1000 -c 0 -i 32 -a 0 -S 0 -y {9 9}
+ -t 1.014 -s 4 -d 3 -p ack -e 40 -c 0 -i 40 -a 0 -S 0 -y {9 9}
- -t 1.014 -s 4 -d 3 -p ack -e 40 -c 0 -i 40 -a 0 -S 0 -y {9 9}
h -t 1.014 -s 4 -d 3 -p ack -e 40 -c 0 -i 40 -a 0 -S 0 -y {-1 -1}
r -t 1.016 -s 2 -d 3 -p cbr -e 500 -c 1 -i 36 -a 1
+ -t 1.016 -s 3 -d 5 -p cbr -e 500 -c 1 -i 36 -a 1
- -t 1.016 -s 3 -d 5 -p cbr -e 500 -c 1 -i 36 -a 1
h -t 1.016 -s 3 -d 5 -p cbr -e 500 -c 1 -i 36 -a 1
r -t 1.03 -s 3 -d 4 -p tcp -e 1000 -c 0 -i 33 -a 0 -S 0 -y {10 10}
+ -t 1.03 -s 4 -d 3 -p ack -e 40 -c 0 -i 41 -a 0 -S 0 -y {10 10}
- -t 1.03 -s 4 -d 3 -p ack -e 40 -c 0 -i 41 -a 0 -S 0 -y {10 10}
h -t 1.03 -s 4 -d 3 -p ack -e 40 -c 0 -i 41 -a 0 -S 0 -y {-1 -1}
r -t 1.03 -s 3 -d 5 -p cbr -e 500 -c 1 -i 34 -a 1
r -t 1.04864 -s 4 -d 3 -p ack -e 40 -c 0 -i 38 -a 0 -S 0 -y {8 8}
+ -t 1.04864 -s 3 -d 2 -p ack -e 40 -c 0 -i 38 -a 0 -S 0 -y {8 8}
- -t 1.04864 -s 3 -d 2 -p ack -e 40 -c 0 -i 38 -a 0 -S 0 -y {8 8}
h -t 1.04864 -s 3 -d 2 -p ack -e 40 -c 0 -i 38 -a 0 -S 0 -y {-1 -1}
+ -t 1.05 -s 1 -d 2 -p cbr -e 500 -c 1 -i 42 -a 1
- -t 1.05 -s 1 -d 2 -p cbr -e 500 -c 1 -i 42 -a 1
h -t 1.05 -s 1 -d 2 -p cbr -e 500 -c 1 -i 42 -a 1
r -t 1.054 -s 3 -d 4 -p tcp -e 1000 -c 0 -i 35 -a 0 -S 0 -y {11 11}
+ -t 1.054 -s 4 -d 3 -p ack -e 40 -c 0 -i 43 -a 0 -S 0 -y {11 11}