v 0 eval {set sim_annotation {Normal operation of <Sliding Window> with window size, 4}}
+ 0.1 0 2 tcp 1000 ------- 0 0.0 4.0 0 0
- 0.1 0 2 tcp 1000 ------- 0 0.0 4.0 0 0
+ 0.1 0 2 tcp 1000 ------- 0 0.0 4.0 1 1
+ 0.1 0 2 tcp 1000 ------- 0 0.0 4.0 2 2
+ 0.1 0 2 tcp 1000 ------- 0 0.0 4.0 3 3
+ 0.1 1 2 cbr 500 ------- 1 1.0 5.0 0 4
- 0.1 1 2 cbr 500 ------- 1 1.0 5.0 0 4
v 0.10000000000000001 eval {set sim_annotation {FTP starts at 0.1}}
v 0.10000000000000001 eval {set sim_annotation {CBR starts at 0.1}}
v 0.11 eval {set sim_annotation {Send Packet_0,1,2,3	: window size, 4}}
- 0.116 0 2 tcp 1000 ------- 0 0.0 4.0 1 1
- 0.132 0 2 tcp 1000 ------- 0 0.0 4.0 2 2
- 0.148 0 2 tcp 1000 ------- 0 0.0 4.0 3 3
+ 0.15 1 2 cbr 500 ------- 1 1.0 5.0 1 5
- 0.15 1 2 cbr 500 ------- 1 1.0 5.0 1 5
r 0.158 1 2 cbr 500 ------- 1 1.0 5.0 0 4
+ 0.158 2 3 cbr 500 ------- 1 1.0 5.0 0 4
- 0.158 2 3 cbr 500 ------- 1 1.0 5.0 0 4
r 0.166 0 2 tcp 1000 ------- 0 0.0 4.0 0 0
+ 0.166 2 3 tcp 1000 ------- 0 0.0 4.0 0 0
- 0.166 2 3 tcp 1000 ------- 0 0.0 4.0 0 0
r 0.182 0 2 tcp 1000 ------- 0 0.0 4.0 1 1
+ 0.182 2 3 tcp 1000 ------- 0 0.0 4.0 1 1
- 0.182 2 3 tcp 1000 ------- 0 0.0 4.0 1 1
r 0.198 0 2 tcp 1000 ------- 0 0.0 4.0 2 2
+ 0.198 2 3 tcp 1000 ------- 0 0.0 4.0 2 2
- 0.198 2 3 tcp 1000 ------- 0 0.0 4.0 2 2
+ 0.2 1 2 cbr 500 ------- 1 1.0 5.0 2 6
- 0.2 1 2 cbr 500 ------- 1 1.0 5.0 2 6
r 0.208 1 2 cbr 500 ------- 1 1.0 5.0 1 5
+ 0.208 2 3 cbr 500 ------- 1 1.0 5.0 1 5
r 0.214 0 2 tcp 1000 ------- 0 0.0 4.0 3 3
+ 0.214 2 3 tcp 1000 ------- 0 0.0 4.0 3 3
- 0.214 2 3 cbr 500 ------- 1 1.0 5.0 1 5
r 0.216 2 3 cbr 500 ------- 1 1.0 5.0 0 4
+ 0.216 3 5 cbr 500 ------- 1 1.0 5.0 0 4
- 0.216 3 5 cbr 500 ------- 1 1.0 5.0 0 4
- 0.222 2 3 tcp 1000 ------- 0 0.0 4.0 3 3
r 0.232 2 3 tcp 1000 ------- 0 0.0 4.0 0 0
+ 0.232 3 4 tcp 1000 ------- 0 0.0 4.0 0 0
- 0.232 3 4 tcp 1000 ------- 0 0.0 4.0 0 0
r 0.248 2 3 tcp 1000 ------- 0 0.0 4.0 1 1
+ 0.248 3 4 tcp 1000 ------- 0 0.0 4.0 1 1
- 0.248 3 4 tcp 1000 ------- 0 0.0 4.0 1 1
+ 0.25 1 2 cbr 500 ------- 1 1.0 5.0 3 7
- 0.25 1 2 cbr 500 ------- 1 1.0 5.0 3 7
r 0.258 1 2 cbr 500 ------- 1 1.0 5.0 2 6
+ 0.258 2 3 cbr 500 ------- 1 1.0 5.0 2 6
- 0.258 2 3 cbr 500 ------- 1 1.0 5.0 2 6
r 0.264 2 3 tcp 1000 ------- 0 0.0 4.0 2 2
+ 0.264 3 4 tcp 1000 ------- 0 0.0 4.0 2 2
- 0.264 3 4 tcp 1000 ------- 0 0.0 4.0 2 2
r 0.272 2 3 cbr 500 ------- 1 1.0 5.0 1 5
+ 0.272 3 5 cbr 500 ------- 1 1.0 5.0 1 5
- 0.272 3 5 cbr 500 ------- 1 1.0 5.0 1 5
r 0.274 3 5 cbr 500 ------- 1 1.0 5.0 0 4
r 0.288 2 3 tcp 1000 ------- 0 0.0 4.0 3 3
+ 0.288 3 4 tcp 1000 ------- 0 0.0 4.0 3 3
- 0.288 3 4 tcp 1000 ------- 0 0.0 4.0 3 3
r 0.298 3 4 tcp 1000 ------- 0 0.0 4.0 0 0
+ 0.298 4 3 ack 40 ------- 0 4.0 0.0 0 8
- 0.298 4 3 ack 40 ------- 0 4.0 0.0 0 8
+ 0.3 1 2 cbr 500 ------- 1 1.0 5.0 4 9
- 0.3 1 2 cbr 500 ------- 1 1.0 5.0 4 9
r 0.308 1 2 cbr 500 ------- 1 1.0 5.0 3 7
+ 0.308 2 3 cbr 500 ------- 1 1.0 5.0 3 7
- 0.308 2 3 cbr 500 ------- 1 1.0 5.0 3 7
r 0.314 3 4 tcp 1000 ------- 0 0.0 4.0 1 1
+ 0.314 4 3 ack 40 ------- 0 4.0 0.0 1 10
- 0.314 4 3 ack 40 ------- 0 4.0 0.0 1 10
r 0.316 2 3 cbr 500 ------- 1 1.0 5.0 2 6
+ 0.316 3 5 cbr 500 ------- 1 1.0 5.0 2 6
- 0.316 3 5 cbr 500 ------- 1 1.0 5.0 2 6
v 0.32000000000000001 eval {set sim_annotation {Ack_0,1,2,3}}
r 0.33 3 4 tcp 1000 ------- 0 0.0 4.0 2 2
+ 0.33 4 3 ack 40 ------- 0 4.0 0.0 2 11
- 0.33 4 3 ack 40 ------- 0 4.0 0.0 2 11
r 0.33 3 5 cbr 500 ------- 1 1.0 5.0 1 5
r 0.34864 4 3 ack 40 ------- 0 4.0 0.0 0 8
+ 0.34864 3 2 ack 40 ------- 0 4.0 0.0 0 8
- 0.34864 3 2 ack 40 ------- 0 4.0 0.0 0 8
+ 0.35 1 2 cbr 500 ------- 1 1.0 5.0 5 12
- 0.35 1 2 cbr 500 ------- 1 1.0 5.0 5 12
r 0.354 3 4 tcp 1000 ------- 0 0.0 4.0 3 3
+ 0.354 4 3 ack 40 ------- 0 4.0 0.0 3 13
- 0.354 4 3 ack 40 ------- 0 4.0 0.0 3 13
r 0.358 1 2 cbr 500 ------- 1 1.0 5.0 4 9
+ 0.358 2 3 cbr 500 ------- 1 1.0 5.0 4 9
- 0.358 2 3 cbr 500 ------- 1 1.0 5.0 4 9
r 0.36464 4 3 ack 40 ------- 0 4.0 0.0 1 10
+ 0.36464 3 2 ack 40 ------- 0 4.0 0.0 1 10
- 0.36464 3 2 ack 40 ------- 0 4.0 0.0 1 10
r 0.366 2 3 cbr 500 ------- 1 1.0 5.0 3 7
+ 0.366 3 5 cbr 500 ------- 1 1.0 5.0 3 7
- 0.366 3 5 cbr 500 ------- 1 1.0 5.0 3 7
r 0.374 3 5 cbr 500 ------- 1 1.0 5.0 2 6
r 0.38064 4 3 ack 40 ------- 0 4.0 0.0 2 11
+ 0.38064 3 2 ack 40 ------- 0 4.0 0.0 2 11
- 0.38064 3 2 ack 40 ------- 0 4.0 0.0 2 11
r 0.39928 3 2 ack 40 ------- 0 4.0 0.0 0 8
+ 0.39928 2 0 ack 40 ------- 0 4.0 0.0 0 8
- 0.39928 2 0 ack 40 ------- 0 4.0 0.0 0 8
+ 0.4 1 2 cbr 500 ------- 1 1.0 5.0 6 14
- 0.4 1 2 cbr 500 ------- 1 1.0 5.0 6 14
r 0.40464 4 3 ack 40 ------- 0 4.0 0.0 3 13
+ 0.40464 3 2 ack 40 ------- 0 4.0 0.0 3 13
- 0.40464 3 2 ack 40 ------- 0 4.0 0.0 3 13
r 0.408 1 2 cbr 500 ------- 1 1.0 5.0 5 12
+ 0.408 2 3 cbr 500 ------- 1 1.0 5.0 5 12
- 0.408 2 3 cbr 500 ------- 1 1.0 5.0 5 12
r 0.41528 3 2 ack 40 ------- 0 4.0 0.0 1 10
+ 0.41528 2 0 ack 40 ------- 0 4.0 0.0 1 10
- 0.41528 2 0 ack 40 ------- 0 4.0 0.0 1 10
r 0.416 2 3 cbr 500 ------- 1 1.0 5.0 4 9
+ 0.416 3 5 cbr 500 ------- 1 1.0 5.0 4 9
- 0.416 3 5 cbr 500 ------- 1 1.0 5.0 4 9
r 0.424 3 5 cbr 500 ------- 1 1.0 5.0 3 7
r 0.43128 3 2 ack 40 ------- 0 4.0 0.0 2 11
+ 0.43128 2 0 ack 40 ------- 0 4.0 0.0 2 11
- 0.43128 2 0 ack 40 ------- 0 4.0 0.0 2 11
r 0.44992 2 0 ack 40 ------- 0 4.0 0.0 0 8
+ 0.44992 0 2 tcp 1000 ------- 0 0.0 4.0 4 15
- 0.44992 0 2 tcp 1000 ------- 0 0.0 4.0 4 15
+ 0.45 1 2 cbr 500 ------- 1 1.0 5.0 7 16
- 0.45 1 2 cbr 500 ------- 1 1.0 5.0 7 16
r 0.45528 3 2 ack 40 ------- 0 4.0 0.0 3 13
+ 0.45528 2 0 ack 40 ------- 0 4.0 0.0 3 13
- 0.45528 2 0 ack 40 ------- 0 4.0 0.0 3 13
r 0.458 1 2 cbr 500 ------- 1 1.0 5.0 6 14
+ 0.458 2 3 cbr 500 ------- 1 1.0 5.0 6 14
- 0.458 2 3 cbr 500 ------- 1 1.0 5.0 6 14
v 0.46000000000000002 eval {set sim_annotation {Send Packet_4,5,6,7	: window size, 4}}
r 0.46592 2 0 ack 40 ------- 0 4.0 0.0 1 10
+ 0.46592 0 2 tcp 1000 ------- 0 0.0 4.0 5 17
- 0.46592 0 2 tcp 1000 ------- 0 0.0 4.0 5 17
r 0.466 2 3 cbr 500 ------- 1 1.0 5.0 5 12
+ 0.466 3 5 cbr 500 ------- 1 1.0 5.0 5 12
- 0.466 3 5 cbr 500 ------- 1 1.0 5.0 5 12
r 0.474 3 5 cbr 500 ------- 1 1.0 5.0 4 9
r 0.48192 2 0 ack 40 ------- 0 4.0 0.0 2 11
+ 0.48192 0 2 tcp 1000 ------- 0 0.0 4.0 6 18
- 0.48192 0 2 tcp 1000 ------- 0 0.0 4.0 6 18
+ 0.5 1 2 cbr 500 ------- 1 1.0 5.0 8 19
- 0.5 1 2 cbr 500 ------- 1 1.0 5.0 8 19
r 0.50592 2 0 ack 40 ------- 0 4.0 0.0 3 13
+ 0.50592 0 2 tcp 1000 ------- 0 0.0 4.0 7 20
- 0.50592 0 2 tcp 1000 ------- 0 0.0 4.0 7 20
r 0.508 1 2 cbr 500 ------- 1 1.0 5.0 7 16
+ 0.508 2 3 cbr 500 ------- 1 1.0 5.0 7 16
- 0.508 2 3 cbr 500 ------- 1 1.0 5.0 7 16
r 0.51592 0 2 tcp 1000 ------- 0 0.0 4.0 4 15
+ 0.51592 2 3 tcp 1000 ------- 0 0.0 4.0 4 15
r 0.516 2 3 cbr 500 ------- 1 1.0 5.0 6 14
+ 0.516 3 5 cbr 500 ------- 1 1.0 5.0 6 14
- 0.516 3 5 cbr 500 ------- 1 1.0 5.0 6 14
- 0.516 2 3 tcp 1000 ------- 0 0.0 4.0 4 15
r 0.524 3 5 cbr 500 ------- 1 1.0 5.0 5 12
r 0.53192 0 2 tcp 1000 ------- 0 0.0 4.0 5 17
+ 0.53192 2 3 tcp 1000 ------- 0 0.0 4.0 5 17
- 0.532 2 3 tcp 1000 ------- 0 0.0 4.0 5 17
r 0.54792 0 2 tcp 1000 ------- 0 0.0 4.0 6 18
+ 0.54792 2 3 tcp 1000 ------- 0 0.0 4.0 6 18
- 0.548 2 3 tcp 1000 ------- 0 0.0 4.0 6 18
+ 0.55 1 2 cbr 500 ------- 1 1.0 5.0 9 21
- 0.55 1 2 cbr 500 ------- 1 1.0 5.0 9 21
r 0.558 1 2 cbr 500 ------- 1 1.0 5.0 8 19
+ 0.558 2 3 cbr 500 ------- 1 1.0 5.0 8 19
- 0.564 2 3 cbr 500 ------- 1 1.0 5.0 8 19
r 0.566 2 3 cbr 500 ------- 1 1.0 5.0 7 16
+ 0.566 3 5 cbr 500 ------- 1 1.0 5.0 7 16
- 0.566 3 5 cbr 500 ------- 1 1.0 5.0 7 16
r 0.57192 0 2 tcp 1000 ------- 0 0.0 4.0 7 20
+ 0.57192 2 3 tcp 1000 ------- 0 0.0 4.0 7 20
- 0.572 2 3 tcp 1000 ------- 0 0.0 4.0 7 20
r 0.574 3 5 cbr 500 ------- 1 1.0 5.0 6 14
r 0.582 2 3 tcp 1000 ------- 0 0.0 4.0 4 15
+ 0.582 3 4 tcp 1000 ------- 0 0.0 4.0 4 15
- 0.582 3 4 tcp 1000 ------- 0 0.0 4.0 4 15
r 0.598 2 3 tcp 1000 ------- 0 0.0 4.0 5 17
+ 0.598 3 4 tcp 1000 ------- 0 0.0 4.0 5 17
- 0.598 3 4 tcp 1000 ------- 0 0.0 4.0 5 17
+ 0.6 1 2 cbr 500 ------- 1 1.0 5.0 10 22
- 0.6 1 2 cbr 500 ------- 1 1.0 5.0 10 22
r 0.608 1 2 cbr 500 ------- 1 1.0 5.0 9 21
+ 0.608 2 3 cbr 500 ------- 1 1.0 5.0 9 21
- 0.608 2 3 cbr 500 ------- 1 1.0 5.0 9 21
r 0.614 2 3 tcp 1000 ------- 0 0.0 4.0 6 18
+ 0.614 3 4 tcp 1000 ------- 0 0.0 4.0 6 18
- 0.614 3 4 tcp 1000 ------- 0 0.0 4.0 6 18
r 0.622 2 3 cbr 500 ------- 1 1.0 5.0 8 19
+ 0.622 3 5 cbr 500 ------- 1 1.0 5.0 8 19
- 0.622 3 5 cbr 500 ------- 1 1.0 5.0 8 19
r 0.624 3 5 cbr 500 ------- 1 1.0 5.0 7 16
r 0.638 2 3 tcp 1000 ------- 0 0.0 4.0 7 20
+ 0.638 3 4 tcp 1000 ------- 0 0.0 4.0 7 20
- 0.638 3 4 tcp 1000 ------- 0 0.0 4.0 7 20
r 0.648 3 4 tcp 1000 ------- 0 0.0 4.0 4 15
+ 0.648 4 3 ack 40 ------- 0 4.0 0.0 4 23
- 0.648 4 3 ack 40 ------- 0 4.0 0.0 4 23
+ 0.65 1 2 cbr 500 ------- 1 1.0 5.0 11 24
- 0.65 1 2 cbr 500 ------- 1 1.0 5.0 11 24
r 0.658 1 2 cbr 500 ------- 1 1.0 5.0 10 22
+ 0.658 2 3 cbr 500 ------- 1 1.0 5.0 10 22
- 0.658 2 3 cbr 500 ------- 1 1.0 5.0 10 22
v 0.66000000000000003 eval {set sim_annotation {Ack_4,5,6,7}}
r 0.664 3 4 tcp 1000 ------- 0 0.0 4.0 5 17
+ 0.664 4 3 ack 40 ------- 0 4.0 0.0 5 25
- 0.664 4 3 ack 40 ------- 0 4.0 0.0 5 25
r 0.666 2 3 cbr 500 ------- 1 1.0 5.0 9 21
+ 0.666 3 5 cbr 500 ------- 1 1.0 5.0 9 21
- 0.666 3 5 cbr 500 ------- 1 1.0 5.0 9 21
r 0.68 3 4 tcp 1000 ------- 0 0.0 4.0 6 18
+ 0.68 4 3 ack 40 ------- 0 4.0 0.0 6 26
- 0.68 4 3 ack 40 ------- 0 4.0 0.0 6 26
r 0.68 3 5 cbr 500 ------- 1 1.0 5.0 8 19
r 0.69864 4 3 ack 40 ------- 0 4.0 0.0 4 23
+ 0.69864 3 2 ack 40 ------- 0 4.0 0.0 4 23
- 0.69864 3 2 ack 40 ------- 0 4.0 0.0 4 23
+ 0.7 1 2 cbr 500 ------- 1 1.0 5.0 12 27
- 0.7 1 2 cbr 500 ------- 1 1.0 5.0 12 27
r 0.704 3 4 tcp 1000 ------- 0 0.0 4.0 7 20
+ 0.704 4 3 ack 40 ------- 0 4.0 0.0 7 28
- 0.704 4 3 ack 40 ------- 0 4.0 0.0 7 28
r 0.708 1 2 cbr 500 ------- 1 1.0 5.0 11 24
+ 0.708 2 3 cbr 500 ------- 1 1.0 5.0 11 24
- 0.708 2 3 cbr 500 ------- 1 1.0 5.0 11 24
r 0.71464 4 3 ack 40 ------- 0 4.0 0.0 5 25
+ 0.71464 3 2 ack 40 ------- 0 4.0 0.0 5 25
- 0.71464 3 2 ack 40 ------- 0 4.0 0.0 5 25
r 0.716 2 3 cbr 500 ------- 1 1.0 5.0 10 22
+ 0.716 3 5 cbr 500 ------- 1 1.0 5.0 10 22
- 0.716 3 5 cbr 500 ------- 1 1.0 5.0 10 22
r 0.724 3 5 cbr 500 ------- 1 1.0 5.0 9 21
r 0.73064 4 3 ack 40 ------- 0 4.0 0.0 6 26
+ 0.73064 3 2 ack 40 ------- 0 4.0 0.0 6 26
- 0.73064 3 2 ack 40 ------- 0 4.0 0.0 6 26
r 0.74928 3 2 ack 40 ------- 0 4.0 0.0 4 23
+ 0.74928 2 0 ack 40 ------- 0 4.0 0.0 4 23
- 0.74928 2 0 ack 40 ------- 0 4.0 0.0 4 23
+ 0.75 1 2 cbr 500 ------- 1 1.0 5.0 13 29
- 0.75 1 2 cbr 500 ------- 1 1.0 5.0 13 29
r 0.75464 4 3 ack 40 ------- 0 4.0 0.0 7 28
+ 0.75464 3 2 ack 40 ------- 0 4.0 0.0 7 28
- 0.75464 3 2 ack 40 ------- 0 4.0 0.0 7 28
r 0.758 1 2 cbr 500 ------- 1 1.0 5.0 12 27
+ 0.758 2 3 cbr 500 ------- 1 1.0 5.0 12 27
- 0.758 2 3 cbr 500 ------- 1 1.0 5.0 12 27
r 0.76528 3 2 ack 40 ------- 0 4.0 0.0 5 25
+ 0.76528 2 0 ack 40 ------- 0 4.0 0.0 5 25
- 0.76528 2 0 ack 40 ------- 0 4.0 0.0 5 25
r 0.766 2 3 cbr 500 ------- 1 1.0 5.0 11 24
+ 0.766 3 5 cbr 500 ------- 1 1.0 5.0 11 24
- 0.766 3 5 cbr 500 ------- 1 1.0 5.0 11 24
r 0.774 3 5 cbr 500 ------- 1 1.0 5.0 10 22
r 0.78128 3 2 ack 40 ------- 0 4.0 0.0 6 26
+ 0.78128 2 0 ack 40 ------- 0 4.0 0.0 6 26
- 0.78128 2 0 ack 40 ------- 0 4.0 0.0 6 26
r 0.79992 2 0 ack 40 ------- 0 4.0 0.0 4 23
+ 0.79992 0 2 tcp 1000 ------- 0 0.0 4.0 8 30
- 0.79992 0 2 tcp 1000 ------- 0 0.0 4.0 8 30
+ 0.8 1 2 cbr 500 ------- 1 1.0 5.0 14 31
- 0.8 1 2 cbr 500 ------- 1 1.0 5.0 14 31
r 0.80528 3 2 ack 40 ------- 0 4.0 0.0 7 28
+ 0.80528 2 0 ack 40 ------- 0 4.0 0.0 7 28
- 0.80528 2 0 ack 40 ------- 0 4.0 0.0 7 28
r 0.808 1 2 cbr 500 ------- 1 1.0 5.0 13 29
+ 0.808 2 3 cbr 500 ------- 1 1.0 5.0 13 29
- 0.808 2 3 cbr 500 ------- 1 1.0 5.0 13 29
v 0.81000000000000005 eval {set sim_annotation {Send Packet_8,9,10,11   : window size, 4}}
r 0.81592 2 0 ack 40 ------- 0 4.0 0.0 5 25
+ 0.81592 0 2 tcp 1000 ------- 0 0.0 4.0 9 32
- 0.81592 0 2 tcp 1000 ------- 0 0.0 4.0 9 32
r 0.816 2 3 cbr 500 ------- 1 1.0 5.0 12 27
+ 0.816 3 5 cbr 500 ------- 1 1.0 5.0 12 27
- 0.816 3 5 cbr 500 ------- 1 1.0 5.0 12 27
r 0.824 3 5 cbr 500 ------- 1 1.0 5.0 11 24
r 0.83192 2 0 ack 40 ------- 0 4.0 0.0 6 26
+ 0.83192 0 2 tcp 1000 ------- 0 0.0 4.0 10 33
- 0.83192 0 2 tcp 1000 ------- 0 0.0 4.0 10 33
+ 0.85 1 2 cbr 500 ------- 1 1.0 5.0 15 34
- 0.85 1 2 cbr 500 ------- 1 1.0 5.0 15 34
r 0.85592 2 0 ack 40 ------- 0 4.0 0.0 7 28
+ 0.85592 0 2 tcp 1000 ------- 0 0.0 4.0 11 35
- 0.85592 0 2 tcp 1000 ------- 0 0.0 4.0 11 35
r 0.858 1 2 cbr 500 ------- 1 1.0 5.0 14 31
+ 0.858 2 3 cbr 500 ------- 1 1.0 5.0 14 31
- 0.858 2 3 cbr 500 ------- 1 1.0 5.0 14 31
r 0.86592 0 2 tcp 1000 ------- 0 0.0 4.0 8 30
+ 0.86592 2 3 tcp 1000 ------- 0 0.0 4.0 8 30
r 0.866 2 3 cbr 500 ------- 1 1.0 5.0 13 29
+ 0.866 3 5 cbr 500 ------- 1 1.0 5.0 13 29
- 0.866 3 5 cbr 500 ------- 1 1.0 5.0 13 29
- 0.866 2 3 tcp 1000 ------- 0 0.0 4.0 8 30
r 0.874 3 5 cbr 500 ------- 1 1.0 5.0 12 27
r 0.88192 0 2 tcp 1000 ------- 0 0.0 4.0 9 32
+ 0.88192 2 3 tcp 1000 ------- 0 0.0 4.0 9 32
- 0.882 2 3 tcp 1000 ------- 0 0.0 4.0 9 32
r 0.89792 0 2 tcp 1000 ------- 0 0.0 4.0 10 33
+ 0.89792 2 3 tcp 1000 ------- 0 0.0 4.0 10 33
- 0.898 2 3 tcp 1000 ------- 0 0.0 4.0 10 33
+ 0.9 1 2 cbr 500 ------- 1 1.0 5.0 16 36
- 0.9 1 2 cbr 500 ------- 1 1.0 5.0 16 36
r 0.908 1 2 cbr 500 ------- 1 1.0 5.0 15 34
+ 0.908 2 3 cbr 500 ------- 1 1.0 5.0 15 34
- 0.914 2 3 cbr 500 ------- 1 1.0 5.0 15 34
r 0.916 2 3 cbr 500 ------- 1 1.0 5.0 14 31
+ 0.916 3 5 cbr 500 ------- 1 1.0 5.0 14 31
- 0.916 3 5 cbr 500 ------- 1 1.0 5.0 14 31
r 0.92192 0 2 tcp 1000 ------- 0 0.0 4.0 11 35
+ 0.92192 2 3 tcp 1000 ------- 0 0.0 4.0 11 35
- 0.922 2 3 tcp 1000 ------- 0 0.0 4.0 11 35
r 0.924 3 5 cbr 500 ------- 1 1.0 5.0 13 29
r 0.932 2 3 tcp 1000 ------- 0 0.0 4.0 8 30
+ 0.932 3 4 tcp 1000 ------- 0 0.0 4.0 8 30
- 0.932 3 4 tcp 1000 ------- 0 0.0 4.0 8 30
r 0.948 2 3 tcp 1000 ------- 0 0.0 4.0 9 32
+ 0.948 3 4 tcp 1000 ------- 0 0.0 4.0 9 32
- 0.948 3 4 tcp 1000 ------- 0 0.0 4.0 9 32
+ 0.95 1 2 cbr 500 ------- 1 1.0 5.0 17 37
- 0.95 1 2 cbr 500 ------- 1 1.0 5.0 17 37
r 0.958 1 2 cbr 500 ------- 1 1.0 5.0 16 36
+ 0.958 2 3 cbr 500 ------- 1 1.0 5.0 16 36
- 0.958 2 3 cbr 500 ------- 1 1.0 5.0 16 36
r 0.964 2 3 tcp 1000 ------- 0 0.0 4.0 10 33
+ 0.964 3 4 tcp 1000 ------- 0 0.0 4.0 10 33
- 0.964 3 4 tcp 1000 ------- 0 0.0 4.0 10 33
r 0.972 2 3 cbr 500 ------- 1 1.0 5.0 15 34
+ 0.972 3 5 cbr 500 ------- 1 1.0 5.0 15 34
- 0.972 3 5 cbr 500 ------- 1 1.0 5.0 15 34
r 0.974 3 5 cbr 500 ------- 1 1.0 5.0 14 31
r 0.988 2 3 tcp 1000 ------- 0 0.0 4.0 11 35
+ 0.988 3 4 tcp 1000 ------- 0 0.0 4.0 11 35
- 0.988 3 4 tcp 1000 ------- 0 0.0 4.0 11 35
r 0.998 3 4 tcp 1000 ------- 0 0.0 4.0 8 30
+ 0.998 4 3 ack 40 ------- 0 4.0 0.0 8 38
- 0.998 4 3 ack 40 ------- 0 4.0 0.0 8 38
v 1 eval {set sim_annotation {Ack_8,9,10,11}}
+ 1 1 2 cbr 500 ------- 1 1.0 5.0 18 39
- 1 1 2 cbr 500 ------- 1 1.0 5.0 18 39
r 1.008 1 2 cbr 500 ------- 1 1.0 5.0 17 37
+ 1.008 2 3 cbr 500 ------- 1 1.0 5.0 17 37
- 1.008 2 3 cbr 500 ------- 1 1.0 5.0 17 37
r 1.014 3 4 tcp 1000 ------- 0 0.0 4.0 9 32
+ 1.014 4 3 ack 40 ------- 0 4.0 0.0 9 40
- 1.014 4 3 ack 40 ------- 0 4.0 0.0 9 40
r 1.016 2 3 cbr 500 ------- 1 1.0 5.0 16 36
+ 1.016 3 5 cbr 500 ------- 1 1.0 5.0 16 36
- 1.016 3 5 cbr 500 ------- 1 1.0 5.0 16 36
r 1.03 3 4 tcp 1000 ------- 0 0.0 4.0 10 33
+ 1.03 4 3 ack 40 ------- 0 4.0 0.0 10 41
- 1.03 4 3 ack 40 ------- 0 4.0 0.0 10 41
r 1.03 3 5 cbr 500 ------- 1 1.0 5.0 15 34
r 1.04864 4 3 ack 40 ------- 0 4.0 0.0 8 38
+ 1.04864 3 2 ack 40 ------- 0 4.0 0.0 8 38
- 1.04864 3 2 ack 40 ------- 0 4.0 0.0 8 38
+ 1.05 1 2 cbr 500 ------- 1 1.0 5.0 19 42
- 1.05 1 2 cbr 500 ------- 1 1.0 5.0 19 42
r 1.054 3 4 tcp 1000 ------- 0 0.0 4.0 11 35
+ 1.054 4 3 ack 40 ------- 0 4.0 0.0 11 43
- 1.054 4 3 ack 40 ------- 0 4.0 0.0 11 43
r 1.058 1 2 cbr 500 ------- 1 1.0 5.0 18 39
+ 1.058 2 3 cbr 500 ------- 1 1.0 5.0 18 39
- 1.058 2 3 cbr 500 ------- 1 1.0 5.0 18 39
r 1.06464 4 3 ack 40 ------- 0 4.0 0.0 9 40
+ 1.06464 3 2 ack 40 ------- 0 4.0 0.0 9 40
- 1.06464 3 2 ack 40 ------- 0 4.0 0.0 9 40
r 1.066 2 3 cbr 500 ------- 1 1.0 5.0 17 37
+ 1.066 3 5 cbr 500 ------- 1 1.0 5.0 17 37
- 1.066 3 5 cbr 500 ------- 1 1.0 5.0 17 37
r 1.074 3 5 cbr 500 ------- 1 1.0 5.0 16 36
r 1.08064 4 3 ack 40 ------- 0 4.0 0.0 10 41
+ 1.08064 3 2 ack 40 ------- 0 4.0 0.0 10 41
- 1.08064 3 2 ack 40 ------- 0 4.0 0.0 10 41
r 1.09928 3 2 ack 40 ------- 0 4.0 0.0 8 38
+ 1.09928 2 0 ack 40 ------- 0 4.0 0.0 8 38
- 1.09928 2 0 ack 40 ------- 0 4.0 0.0 8 38
+ 1.1 1 2 cbr 500 ------- 1 1.0 5.0 20 44
- 1.1 1 2 cbr 500 ------- 1 1.0 5.0 20 44
r 1.10464 4 3 ack 40 ------- 0 4.0 0.0 11 43
+ 1.10464 3 2 ack 40 ------- 0 4.0 0.0 11 43
- 1.10464 3 2 ack 40 ------- 0 4.0 0.0 11 43
r 1.108 1 2 cbr 500 ------- 1 1.0 5.0 19 42
+ 1.108 2 3 cbr 500 ------- 1 1.0 5.0 19 42
- 1.108 2 3 cbr 500 ------- 1 1.0 5.0 19 42
r 1.11528 3 2 ack 40 ------- 0 4.0 0.0 9 40
+ 1.11528 2 0 ack 40 ------- 0 4.0 0.0 9 40
- 1.11528 2 0 ack 40 ------- 0 4.0 0.0 9 40
r 1.116 2 3 cbr 500 ------- 1 1.0 5.0 18 39
+ 1.116 3 5 cbr 500 ------- 1 1.0 5.0 18 39
- 1.116 3 5 cbr 500 ------- 1 1.0 5.0 18 39
r 1.124 3 5 cbr 500 ------- 1 1.0 5.0 17 37
r 1.13128 3 2 ack 40 ------- 0 4.0 0.0 10 41
+ 1.13128 2 0 ack 40 ------- 0 4.0 0.0 10 41
- 1.13128 2 0 ack 40 ------- 0 4.0 0.0 10 41
r 1.14992 2 0 ack 40 ------- 0 4.0 0.0 8 38
+ 1.14992 0 2 tcp 1000 ------- 0 0.0 4.0 12 45
- 1.14992 0 2 tcp 1000 ------- 0 0.0 4.0 12 45
+ 1.15 1 2 cbr 500 ------- 1 1.0 5.0 21 46
- 1.15 1 2 cbr 500 ------- 1 1.0 5.0 21 46
r 1.15528 3 2 ack 40 ------- 0 4.0 0.0 11 43
+ 1.15528 2 0 ack 40 ------- 0 4.0 0.0 11 43
- 1.15528 2 0 ack 40 ------- 0 4.0 0.0 11 43
r 1.158 1 2 cbr 500 ------- 1 1.0 5.0 20 44
+ 1.158 2 3 cbr 500 ------- 1 1.0 5.0 20 44
- 1.158 2 3 cbr 500 ------- 1 1.0 5.0 20 44
v 1.1599999999999999 eval {set sim_annotation {Send Packet_12,13,14,15  : window size, 4}}
r 1.16592 2 0 ack 40 ------- 0 4.0 0.0 9 40
+ 1.16592 0 2 tcp 1000 ------- 0 0.0 4.0 13 47
- 1.16592 0 2 tcp 1000 ------- 0 0.0 4.0 13 47
r 1.166 2 3 cbr 500 ------- 1 1.0 5.0 19 42
+ 1.166 3 5 cbr 500 ------- 1 1.0 5.0 19 42
- 1.166 3 5 cbr 500 ------- 1 1.0 5.0 19 42
r 1.174 3 5 cbr 500 ------- 1 1.0 5.0 18 39
r 1.18192 2 0 ack 40 ------- 0 4.0 0.0 10 41
+ 1.18192 0 2 tcp 1000 ------- 0 0.0 4.0 14 48
- 1.18192 0 2 tcp 1000 ------- 0 0.0 4.0 14 48
+ 1.2 1 2 cbr 500 ------- 1 1.0 5.0 22 49
- 1.2 1 2 cbr 500 ------- 1 1.0 5.0 22 49
r 1.20592 2 0 ack 40 ------- 0 4.0 0.0 11 43
+ 1.20592 0 2 tcp 1000 ------- 0 0.0 4.0 15 50
- 1.20592 0 2 tcp 1000 ------- 0 0.0 4.0 15 50
r 1.208 1 2 cbr 500 ------- 1 1.0 5.0 21 46
+ 1.208 2 3 cbr 500 ------- 1 1.0 5.0 21 46
- 1.208 2 3 cbr 500 ------- 1 1.0 5.0 21 46
r 1.21592 0 2 tcp 1000 ------- 0 0.0 4.0 12 45
+ 1.21592 2 3 tcp 1000 ------- 0 0.0 4.0 12 45
r 1.216 2 3 cbr 500 ------- 1 1.0 5.0 20 44
+ 1.216 3 5 cbr 500 ------- 1 1.0 5.0 20 44
- 1.216 3 5 cbr 500 ------- 1 1.0 5.0 20 44
- 1.216 2 3 tcp 1000 ------- 0 0.0 4.0 12 45
r 1.224 3 5 cbr 500 ------- 1 1.0 5.0 19 42
r 1.23192 0 2 tcp 1000 ------- 0 0.0 4.0 13 47
+ 1.23192 2 3 tcp 1000 ------- 0 0.0 4.0 13 47
- 1.232 2 3 tcp 1000 ------- 0 0.0 4.0 13 47
r 1.24792 0 2 tcp 1000 ------- 0 0.0 4.0 14 48
+ 1.24792 2 3 tcp 1000 ------- 0 0.0 4.0 14 48
- 1.248 2 3 tcp 1000 ------- 0 0.0 4.0 14 48
+ 1.25 1 2 cbr 500 ------- 1 1.0 5.0 23 51
- 1.25 1 2 cbr 500 ------- 1 1.0 5.0 23 51
r 1.258 1 2 cbr 500 ------- 1 1.0 5.0 22 49
+ 1.258 2 3 cbr 500 ------- 1 1.0 5.0 22 49
- 1.264 2 3 cbr 500 ------- 1 1.0 5.0 22 49
r 1.266 2 3 cbr 500 ------- 1 1.0 5.0 21 46
+ 1.266 3 5 cbr 500 ------- 1 1.0 5.0 21 46
- 1.266 3 5 cbr 500 ------- 1 1.0 5.0 21 46
r 1.27192 0 2 tcp 1000 ------- 0 0.0 4.0 15 50
+ 1.27192 2 3 tcp 1000 ------- 0 0.0 4.0 15 50
- 1.272 2 3 tcp 1000 ------- 0 0.0 4.0 15 50
r 1.274 3 5 cbr 500 ------- 1 1.0 5.0 20 44
r 1.282 2 3 tcp 1000 ------- 0 0.0 4.0 12 45
+ 1.282 3 4 tcp 1000 ------- 0 0.0 4.0 12 45
- 1.282 3 4 tcp 1000 ------- 0 0.0 4.0 12 45
r 1.298 2 3 tcp 1000 ------- 0 0.0 4.0 13 47
+ 1.298 3 4 tcp 1000 ------- 0 0.0 4.0 13 47
- 1.298 3 4 tcp 1000 ------- 0 0.0 4.0 13 47
+ 1.3 1 2 cbr 500 ------- 1 1.0 5.0 24 52
- 1.3 1 2 cbr 500 ------- 1 1.0 5.0 24 52
r 1.308 1 2 cbr 500 ------- 1 1.0 5.0 23 51
+ 1.308 2 3 cbr 500 ------- 1 1.0 5.0 23 51
- 1.308 2 3 cbr 500 ------- 1 1.0 5.0 23 51
r 1.314 2 3 tcp 1000 ------- 0 0.0 4.0 14 48
+ 1.314 3 4 tcp 1000 ------- 0 0.0 4.0 14 48
- 1.314 3 4 tcp 1000 ------- 0 0.0 4.0 14 48
r 1.322 2 3 cbr 500 ------- 1 1.0 5.0 22 49
+ 1.322 3 5 cbr 500 ------- 1 1.0 5.0 22 49
- 1.322 3 5 cbr 500 ------- 1 1.0 5.0 22 49
r 1.324 3 5 cbr 500 ------- 1 1.0 5.0 21 46
r 1.338 2 3 tcp 1000 ------- 0 0.0 4.0 15 50
+ 1.338 3 4 tcp 1000 ------- 0 0.0 4.0 15 50
- 1.338 3 4 tcp 1000 ------- 0 0.0 4.0 15 50
r 1.348 3 4 tcp 1000 ------- 0 0.0 4.0 12 45
+ 1.348 4 3 ack 40 ------- 0 4.0 0.0 12 53
- 1.348 4 3 ack 40 ------- 0 4.0 0.0 12 53
v 1.3500000000000001 eval {set sim_annotation {Ack_12,13,14,15}}
+ 1.35 1 2 cbr 500 ------- 1 1.0 5.0 25 54
- 1.35 1 2 cbr 500 ------- 1 1.0 5.0 25 54
r 1.358 1 2 cbr 500 ------- 1 1.0 5.0 24 52
+ 1.358 2 3 cbr 500 ------- 1 1.0 5.0 24 52
- 1.358 2 3 cbr 500 ------- 1 1.0 5.0 24 52
r 1.364 3 4 tcp 1000 ------- 0 0.0 4.0 13 47
+ 1.364 4 3 ack 40 ------- 0 4.0 0.0 13 55
- 1.364 4 3 ack 40 ------- 0 4.0 0.0 13 55
r 1.366 2 3 cbr 500 ------- 1 1.0 5.0 23 51
+ 1.366 3 5 cbr 500 ------- 1 1.0 5.0 23 51
- 1.366 3 5 cbr 500 ------- 1 1.0 5.0 23 51
r 1.38 3 4 tcp 1000 ------- 0 0.0 4.0 14 48
+ 1.38 4 3 ack 40 ------- 0 4.0 0.0 14 56
- 1.38 4 3 ack 40 ------- 0 4.0 0.0 14 56
r 1.38 3 5 cbr 500 ------- 1 1.0 5.0 22 49
r 1.39864 4 3 ack 40 ------- 0 4.0 0.0 12 53
+ 1.39864 3 2 ack 40 ------- 0 4.0 0.0 12 53
- 1.39864 3 2 ack 40 ------- 0 4.0 0.0 12 53
+ 1.4 1 2 cbr 500 ------- 1 1.0 5.0 26 57
- 1.4 1 2 cbr 500 ------- 1 1.0 5.0 26 57
r 1.404 3 4 tcp 1000 ------- 0 0.0 4.0 15 50
+ 1.404 4 3 ack 40 ------- 0 4.0 0.0 15 58
- 1.404 4 3 ack 40 ------- 0 4.0 0.0 15 58
r 1.408 1 2 cbr 500 ------- 1 1.0 5.0 25 54
+ 1.408 2 3 cbr 500 ------- 1 1.0 5.0 25 54
- 1.408 2 3 cbr 500 ------- 1 1.0 5.0 25 54
r 1.41464 4 3 ack 40 ------- 0 4.0 0.0 13 55
+ 1.41464 3 2 ack 40 ------- 0 4.0 0.0 13 55
- 1.41464 3 2 ack 40 ------- 0 4.0 0.0 13 55
r 1.416 2 3 cbr 500 ------- 1 1.0 5.0 24 52
+ 1.416 3 5 cbr 500 ------- 1 1.0 5.0 24 52
- 1.416 3 5 cbr 500 ------- 1 1.0 5.0 24 52
r 1.424 3 5 cbr 500 ------- 1 1.0 5.0 23 51
r 1.43064 4 3 ack 40 ------- 0 4.0 0.0 14 56
+ 1.43064 3 2 ack 40 ------- 0 4.0 0.0 14 56
- 1.43064 3 2 ack 40 ------- 0 4.0 0.0 14 56
r 1.44928 3 2 ack 40 ------- 0 4.0 0.0 12 53
+ 1.44928 2 0 ack 40 ------- 0 4.0 0.0 12 53
- 1.44928 2 0 ack 40 ------- 0 4.0 0.0 12 53
+ 1.45 1 2 cbr 500 ------- 1 1.0 5.0 27 59
- 1.45 1 2 cbr 500 ------- 1 1.0 5.0 27 59
r 1.45464 4 3 ack 40 ------- 0 4.0 0.0 15 58
+ 1.45464 3 2 ack 40 ------- 0 4.0 0.0 15 58
- 1.45464 3 2 ack 40 ------- 0 4.0 0.0 15 58
r 1.458 1 2 cbr 500 ------- 1 1.0 5.0 26 57
+ 1.458 2 3 cbr 500 ------- 1 1.0 5.0 26 57
- 1.458 2 3 cbr 500 ------- 1 1.0 5.0 26 57
r 1.46528 3 2 ack 40 ------- 0 4.0 0.0 13 55
+ 1.46528 2 0 ack 40 ------- 0 4.0 0.0 13 55
- 1.46528 2 0 ack 40 ------- 0 4.0 0.0 13 55
r 1.466 2 3 cbr 500 ------- 1 1.0 5.0 25 54
+ 1.466 3 5 cbr 500 ------- 1 1.0 5.0 25 54
- 1.466 3 5 cbr 500 ------- 1 1.0 5.0 25 54
r 1.474 3 5 cbr 500 ------- 1 1.0 5.0 24 52
r 1.48128 3 2 ack 40 ------- 0 4.0 0.0 14 56
+ 1.48128 2 0 ack 40 ------- 0 4.0 0.0 14 56
- 1.48128 2 0 ack 40 ------- 0 4.0 0.0 14 56
r 1.49992 2 0 ack 40 ------- 0 4.0 0.0 12 53
+ 1.49992 0 2 tcp 1000 ------- 0 0.0 4.0 16 60
- 1.49992 0 2 tcp 1000 ------- 0 0.0 4.0 16 60
v 1.5 eval {set sim_annotation {Send Packet_16,17,18,19   : window size, 4}}
+ 1.5 1 2 cbr 500 ------- 1 1.0 5.0 28 61
- 1.5 1 2 cbr 500 ------- 1 1.0 5.0 28 61
r 1.50528 3 2 ack 40 ------- 0 4.0 0.0 15 58
+ 1.50528 2 0 ack 40 ------- 0 4.0 0.0 15 58
- 1.50528 2 0 ack 40 ------- 0 4.0 0.0 15 58
r 1.508 1 2 cbr 500 ------- 1 1.0 5.0 27 59
+ 1.508 2 3 cbr 500 ------- 1 1.0 5.0 27 59
- 1.508 2 3 cbr 500 ------- 1 1.0 5.0 27 59
r 1.51592 2 0 ack 40 ------- 0 4.0 0.0 13 55
+ 1.51592 0 2 tcp 1000 ------- 0 0.0 4.0 17 62
- 1.51592 0 2 tcp 1000 ------- 0 0.0 4.0 17 62
r 1.516 2 3 cbr 500 ------- 1 1.0 5.0 26 57
+ 1.516 3 5 cbr 500 ------- 1 1.0 5.0 26 57
- 1.516 3 5 cbr 500 ------- 1 1.0 5.0 26 57
r 1.524 3 5 cbr 500 ------- 1 1.0 5.0 25 54
r 1.53192 2 0 ack 40 ------- 0 4.0 0.0 14 56
+ 1.53192 0 2 tcp 1000 ------- 0 0.0 4.0 18 63
- 1.53192 0 2 tcp 1000 ------- 0 0.0 4.0 18 63
+ 1.55 1 2 cbr 500 ------- 1 1.0 5.0 29 64
- 1.55 1 2 cbr 500 ------- 1 1.0 5.0 29 64
r 1.55592 2 0 ack 40 ------- 0 4.0 0.0 15 58
+ 1.55592 0 2 tcp 1000 ------- 0 0.0 4.0 19 65
- 1.55592 0 2 tcp 1000 ------- 0 0.0 4.0 19 65
r 1.558 1 2 cbr 500 ------- 1 1.0 5.0 28 61
+ 1.558 2 3 cbr 500 ------- 1 1.0 5.0 28 61
- 1.558 2 3 cbr 500 ------- 1 1.0 5.0 28 61
r 1.56592 0 2 tcp 1000 ------- 0 0.0 4.0 16 60
+ 1.56592 2 3 tcp 1000 ------- 0 0.0 4.0 16 60
r 1.566 2 3 cbr 500 ------- 1 1.0 5.0 27 59
+ 1.566 3 5 cbr 500 ------- 1 1.0 5.0 27 59
- 1.566 3 5 cbr 500 ------- 1 1.0 5.0 27 59
- 1.566 2 3 tcp 1000 ------- 0 0.0 4.0 16 60
r 1.574 3 5 cbr 500 ------- 1 1.0 5.0 26 57
r 1.58192 0 2 tcp 1000 ------- 0 0.0 4.0 17 62
+ 1.58192 2 3 tcp 1000 ------- 0 0.0 4.0 17 62
- 1.582 2 3 tcp 1000 ------- 0 0.0 4.0 17 62
r 1.59792 0 2 tcp 1000 ------- 0 0.0 4.0 18 63
+ 1.59792 2 3 tcp 1000 ------- 0 0.0 4.0 18 63
- 1.598 2 3 tcp 1000 ------- 0 0.0 4.0 18 63
+ 1.6 1 2 cbr 500 ------- 1 1.0 5.0 30 66
- 1.6 1 2 cbr 500 ------- 1 1.0 5.0 30 66
r 1.608 1 2 cbr 500 ------- 1 1.0 5.0 29 64
+ 1.608 2 3 cbr 500 ------- 1 1.0 5.0 29 64
- 1.614 2 3 cbr 500 ------- 1 1.0 5.0 29 64
r 1.616 2 3 cbr 500 ------- 1 1.0 5.0 28 61
+ 1.616 3 5 cbr 500 ------- 1 1.0 5.0 28 61
- 1.616 3 5 cbr 500 ------- 1 1.0 5.0 28 61
r 1.62192 0 2 tcp 1000 ------- 0 0.0 4.0 19 65
+ 1.62192 2 3 tcp 1000 ------- 0 0.0 4.0 19 65
- 1.622 2 3 tcp 1000 ------- 0 0.0 4.0 19 65
r 1.624 3 5 cbr 500 ------- 1 1.0 5.0 27 59
r 1.632 2 3 tcp 1000 ------- 0 0.0 4.0 16 60
+ 1.632 3 4 tcp 1000 ------- 0 0.0 4.0 16 60
- 1.632 3 4 tcp 1000 ------- 0 0.0 4.0 16 60
r 1.648 2 3 tcp 1000 ------- 0 0.0 4.0 17 62
+ 1.648 3 4 tcp 1000 ------- 0 0.0 4.0 17 62
- 1.648 3 4 tcp 1000 ------- 0 0.0 4.0 17 62
+ 1.65 1 2 cbr 500 ------- 1 1.0 5.0 31 67
- 1.65 1 2 cbr 500 ------- 1 1.0 5.0 31 67
r 1.658 1 2 cbr 500 ------- 1 1.0 5.0 30 66
+ 1.658 2 3 cbr 500 ------- 1 1.0 5.0 30 66
- 1.658 2 3 cbr 500 ------- 1 1.0 5.0 30 66
r 1.664 2 3 tcp 1000 ------- 0 0.0 4.0 18 63
+ 1.664 3 4 tcp 1000 ------- 0 0.0 4.0 18 63
- 1.664 3 4 tcp 1000 ------- 0 0.0 4.0 18 63
r 1.672 2 3 cbr 500 ------- 1 1.0 5.0 29 64
+ 1.672 3 5 cbr 500 ------- 1 1.0 5.0 29 64
- 1.672 3 5 cbr 500 ------- 1 1.0 5.0 29 64
r 1.674 3 5 cbr 500 ------- 1 1.0 5.0 28 61
r 1.688 2 3 tcp 1000 ------- 0 0.0 4.0 19 65
+ 1.688 3 4 tcp 1000 ------- 0 0.0 4.0 19 65
- 1.688 3 4 tcp 1000 ------- 0 0.0 4.0 19 65
r 1.698 3 4 tcp 1000 ------- 0 0.0 4.0 16 60
+ 1.698 4 3 ack 40 ------- 0 4.0 0.0 16 68
- 1.698 4 3 ack 40 ------- 0 4.0 0.0 16 68
r 1.708 1 2 cbr 500 ------- 1 1.0 5.0 31 67
+ 1.708 2 3 cbr 500 ------- 1 1.0 5.0 31 67
- 1.708 2 3 cbr 500 ------- 1 1.0 5.0 31 67
v 1.71 eval {set sim_annotation {Ack_16,17,18,19}}
r 1.714 3 4 tcp 1000 ------- 0 0.0 4.0 17 62
+ 1.714 4 3 ack 40 ------- 0 4.0 0.0 17 69
- 1.714 4 3 ack 40 ------- 0 4.0 0.0 17 69
r 1.716 2 3 cbr 500 ------- 1 1.0 5.0 30 66
+ 1.716 3 5 cbr 500 ------- 1 1.0 5.0 30 66
- 1.716 3 5 cbr 500 ------- 1 1.0 5.0 30 66
r 1.73 3 4 tcp 1000 ------- 0 0.0 4.0 18 63
+ 1.73 4 3 ack 40 ------- 0 4.0 0.0 18 70
- 1.73 4 3 ack 40 ------- 0 4.0 0.0 18 70
r 1.73 3 5 cbr 500 ------- 1 1.0 5.0 29 64
r 1.74864 4 3 ack 40 ------- 0 4.0 0.0 16 68
+ 1.74864 3 2 ack 40 ------- 0 4.0 0.0 16 68
- 1.74864 3 2 ack 40 ------- 0 4.0 0.0 16 68
r 1.754 3 4 tcp 1000 ------- 0 0.0 4.0 19 65
+ 1.754 4 3 ack 40 ------- 0 4.0 0.0 19 71
- 1.754 4 3 ack 40 ------- 0 4.0 0.0 19 71
r 1.76464 4 3 ack 40 ------- 0 4.0 0.0 17 69
+ 1.76464 3 2 ack 40 ------- 0 4.0 0.0 17 69
- 1.76464 3 2 ack 40 ------- 0 4.0 0.0 17 69
r 1.766 2 3 cbr 500 ------- 1 1.0 5.0 31 67
+ 1.766 3 5 cbr 500 ------- 1 1.0 5.0 31 67
- 1.766 3 5 cbr 500 ------- 1 1.0 5.0 31 67
r 1.774 3 5 cbr 500 ------- 1 1.0 5.0 30 66
r 1.78064 4 3 ack 40 ------- 0 4.0 0.0 18 70
+ 1.78064 3 2 ack 40 ------- 0 4.0 0.0 18 70
- 1.78064 3 2 ack 40 ------- 0 4.0 0.0 18 70
r 1.79928 3 2 ack 40 ------- 0 4.0 0.0 16 68
+ 1.79928 2 0 ack 40 ------- 0 4.0 0.0 16 68
- 1.79928 2 0 ack 40 ------- 0 4.0 0.0 16 68
v 1.8 eval {set sim_annotation {FTP stops at 1.7}}
v 1.8 eval {set sim_annotation {CBR stops at 1.7}}
r 1.80464 4 3 ack 40 ------- 0 4.0 0.0 19 71
+ 1.80464 3 2 ack 40 ------- 0 4.0 0.0 19 71
- 1.80464 3 2 ack 40 ------- 0 4.0 0.0 19 71
r 1.81528 3 2 ack 40 ------- 0 4.0 0.0 17 69
+ 1.81528 2 0 ack 40 ------- 0 4.0 0.0 17 69
- 1.81528 2 0 ack 40 ------- 0 4.0 0.0 17 69
r 1.824 3 5 cbr 500 ------- 1 1.0 5.0 31 67
r 1.83128 3 2 ack 40 ------- 0 4.0 0.0 18 70
+ 1.83128 2 0 ack 40 ------- 0 4.0 0.0 18 70
- 1.83128 2 0 ack 40 ------- 0 4.0 0.0 18 70
r 1.84992 2 0 ack 40 ------- 0 4.0 0.0 16 68
r 1.85528 3 2 ack 40 ------- 0 4.0 0.0 19 71
+ 1.85528 2 0 ack 40 ------- 0 4.0 0.0 19 71
- 1.85528 2 0 ack 40 ------- 0 4.0 0.0 19 71
r 1.86592 2 0 ack 40 ------- 0 4.0 0.0 17 69
r 1.88192 2 0 ack 40 ------- 0 4.0 0.0 18 70
r 1.90592 2 0 ack 40 ------- 0 4.0 0.0 19 71
