v 0 eval {set sim_annotation {Sliding Window with packet loss    }}
+ 0.1 0 2 tcp 1000 ------- 0 0.0 4.0 0 0
- 0.1 0 2 tcp 1000 ------- 0 0.0 4.0 0 0
+ 0.1 0 2 tcp 1000 ------- 0 0.0 4.0 1 1
+ 0.1 0 2 tcp 1000 ------- 0 0.0 4.0 2 2
+ 0.1 0 2 tcp 1000 ------- 0 0.0 4.0 3 3
+ 0.1 1 2 cbr 210 ------- 1 1.0 5.0 0 4
- 0.1 1 2 cbr 210 ------- 1 1.0 5.0 0 4
+ 0.10375 1 2 cbr 210 ------- 1 1.0 5.0 1 5
- 0.10375 1 2 cbr 210 ------- 1 1.0 5.0 1 5
+ 0.1075 1 2 cbr 210 ------- 1 1.0 5.0 2 6
- 0.1075 1 2 cbr 210 ------- 1 1.0 5.0 2 6
+ 0.11125 1 2 cbr 210 ------- 1 1.0 5.0 3 7
- 0.11125 1 2 cbr 210 ------- 1 1.0 5.0 3 7
+ 0.115 1 2 cbr 210 ------- 1 1.0 5.0 4 8
- 0.115 1 2 cbr 210 ------- 1 1.0 5.0 4 8
- 0.116 0 2 tcp 1000 ------- 0 0.0 4.0 1 1
+ 0.11875 1 2 cbr 210 ------- 1 1.0 5.0 5 9
- 0.11875 1 2 cbr 210 ------- 1 1.0 5.0 5 9
+ 0.1225 1 2 cbr 210 ------- 1 1.0 5.0 6 10
- 0.1225 1 2 cbr 210 ------- 1 1.0 5.0 6 10
+ 0.12625 1 2 cbr 210 ------- 1 1.0 5.0 7 11
- 0.12625 1 2 cbr 210 ------- 1 1.0 5.0 7 11
+ 0.13 1 2 cbr 210 ------- 1 1.0 5.0 8 12
- 0.13 1 2 cbr 210 ------- 1 1.0 5.0 8 12
- 0.132 0 2 tcp 1000 ------- 0 0.0 4.0 2 2
+ 0.13375 1 2 cbr 210 ------- 1 1.0 5.0 9 13
- 0.13375 1 2 cbr 210 ------- 1 1.0 5.0 9 13
+ 0.1375 1 2 cbr 210 ------- 1 1.0 5.0 10 14
- 0.1375 1 2 cbr 210 ------- 1 1.0 5.0 10 14
+ 0.14125 1 2 cbr 210 ------- 1 1.0 5.0 11 15
- 0.14125 1 2 cbr 210 ------- 1 1.0 5.0 11 15
+ 0.145 1 2 cbr 210 ------- 1 1.0 5.0 12 16
- 0.145 1 2 cbr 210 ------- 1 1.0 5.0 12 16
- 0.148 0 2 tcp 1000 ------- 0 0.0 4.0 3 3
+ 0.14875 1 2 cbr 210 ------- 1 1.0 5.0 13 17
- 0.14875 1 2 cbr 210 ------- 1 1.0 5.0 13 17
+ 0.1525 1 2 cbr 210 ------- 1 1.0 5.0 14 18
- 0.1525 1 2 cbr 210 ------- 1 1.0 5.0 14 18
r 0.15336 1 2 cbr 210 ------- 1 1.0 5.0 0 4
+ 0.15336 2 3 cbr 210 ------- 1 1.0 5.0 0 4
- 0.15336 2 3 cbr 210 ------- 1 1.0 5.0 0 4
+ 0.15625 1 2 cbr 210 ------- 1 1.0 5.0 15 19
- 0.15625 1 2 cbr 210 ------- 1 1.0 5.0 15 19
r 0.15711 1 2 cbr 210 ------- 1 1.0 5.0 1 5
+ 0.15711 2 3 cbr 210 ------- 1 1.0 5.0 1 5
- 0.15711 2 3 cbr 210 ------- 1 1.0 5.0 1 5
+ 0.16 1 2 cbr 210 ------- 1 1.0 5.0 16 20
- 0.16 1 2 cbr 210 ------- 1 1.0 5.0 16 20
r 0.16086 1 2 cbr 210 ------- 1 1.0 5.0 2 6
+ 0.16086 2 3 cbr 210 ------- 1 1.0 5.0 2 6
- 0.16086 2 3 cbr 210 ------- 1 1.0 5.0 2 6
+ 0.16375 1 2 cbr 210 ------- 1 1.0 5.0 17 21
- 0.16375 1 2 cbr 210 ------- 1 1.0 5.0 17 21
r 0.16461 1 2 cbr 210 ------- 1 1.0 5.0 3 7
+ 0.16461 2 3 cbr 210 ------- 1 1.0 5.0 3 7
- 0.16461 2 3 cbr 210 ------- 1 1.0 5.0 3 7
r 0.166 0 2 tcp 1000 ------- 0 0.0 4.0 0 0
+ 0.166 2 3 tcp 1000 ------- 0 0.0 4.0 0 0
+ 0.1675 1 2 cbr 210 ------- 1 1.0 5.0 18 22
- 0.1675 1 2 cbr 210 ------- 1 1.0 5.0 18 22
- 0.16797 2 3 tcp 1000 ------- 0 0.0 4.0 0 0
r 0.16836 1 2 cbr 210 ------- 1 1.0 5.0 4 8
+ 0.16836 2 3 cbr 210 ------- 1 1.0 5.0 4 8
+ 0.17125 1 2 cbr 210 ------- 1 1.0 5.0 19 23
- 0.17125 1 2 cbr 210 ------- 1 1.0 5.0 19 23
r 0.17211 1 2 cbr 210 ------- 1 1.0 5.0 5 9
+ 0.17211 2 3 cbr 210 ------- 1 1.0 5.0 5 9
+ 0.175 1 2 cbr 210 ------- 1 1.0 5.0 20 24
- 0.175 1 2 cbr 210 ------- 1 1.0 5.0 20 24
r 0.17586 1 2 cbr 210 ------- 1 1.0 5.0 6 10
+ 0.17586 2 3 cbr 210 ------- 1 1.0 5.0 6 10
+ 0.17875 1 2 cbr 210 ------- 1 1.0 5.0 21 25
- 0.17875 1 2 cbr 210 ------- 1 1.0 5.0 21 25
r 0.17961 1 2 cbr 210 ------- 1 1.0 5.0 7 11
+ 0.17961 2 3 cbr 210 ------- 1 1.0 5.0 7 11
r 0.182 0 2 tcp 1000 ------- 0 0.0 4.0 1 1
+ 0.182 2 3 tcp 1000 ------- 0 0.0 4.0 1 1
+ 0.1825 1 2 cbr 210 ------- 1 1.0 5.0 22 26
- 0.1825 1 2 cbr 210 ------- 1 1.0 5.0 22 26
r 0.18336 1 2 cbr 210 ------- 1 1.0 5.0 8 12
+ 0.18336 2 3 cbr 210 ------- 1 1.0 5.0 8 12
- 0.18397 2 3 cbr 210 ------- 1 1.0 5.0 4 8
+ 0.18625 1 2 cbr 210 ------- 1 1.0 5.0 23 27
- 0.18625 1 2 cbr 210 ------- 1 1.0 5.0 23 27
r 0.18711 1 2 cbr 210 ------- 1 1.0 5.0 9 13
+ 0.18711 2 3 cbr 210 ------- 1 1.0 5.0 9 13
- 0.18733 2 3 cbr 210 ------- 1 1.0 5.0 5 9
+ 0.19 1 2 cbr 210 ------- 1 1.0 5.0 24 28
- 0.19 1 2 cbr 210 ------- 1 1.0 5.0 24 28
- 0.19069 2 3 cbr 210 ------- 1 1.0 5.0 6 10
r 0.19086 1 2 cbr 210 ------- 1 1.0 5.0 10 14
+ 0.19086 2 3 cbr 210 ------- 1 1.0 5.0 10 14
+ 0.19375 1 2 cbr 210 ------- 1 1.0 5.0 25 29
- 0.19375 1 2 cbr 210 ------- 1 1.0 5.0 25 29
- 0.19405 2 3 cbr 210 ------- 1 1.0 5.0 7 11
r 0.19461 1 2 cbr 210 ------- 1 1.0 5.0 11 15
+ 0.19461 2 3 cbr 210 ------- 1 1.0 5.0 11 15
- 0.19741 2 3 tcp 1000 ------- 0 0.0 4.0 1 1
+ 0.1975 1 2 cbr 210 ------- 1 1.0 5.0 26 30
- 0.1975 1 2 cbr 210 ------- 1 1.0 5.0 26 30
r 0.198 0 2 tcp 1000 ------- 0 0.0 4.0 2 2
+ 0.198 2 3 tcp 1000 ------- 0 0.0 4.0 2 2
r 0.19836 1 2 cbr 210 ------- 1 1.0 5.0 12 16
+ 0.19836 2 3 cbr 210 ------- 1 1.0 5.0 12 16
+ 0.20125 1 2 cbr 210 ------- 1 1.0 5.0 27 31
- 0.20125 1 2 cbr 210 ------- 1 1.0 5.0 27 31
r 0.20211 1 2 cbr 210 ------- 1 1.0 5.0 13 17
+ 0.20211 2 3 cbr 210 ------- 1 1.0 5.0 13 17
+ 0.205 1 2 cbr 210 ------- 1 1.0 5.0 28 32
- 0.205 1 2 cbr 210 ------- 1 1.0 5.0 28 32
r 0.20586 1 2 cbr 210 ------- 1 1.0 5.0 14 18
+ 0.20586 2 3 cbr 210 ------- 1 1.0 5.0 14 18
r 0.20672 2 3 cbr 210 ------- 1 1.0 5.0 0 4
+ 0.20672 3 5 cbr 210 ------- 1 1.0 5.0 0 4
- 0.20672 3 5 cbr 210 ------- 1 1.0 5.0 0 4
+ 0.20875 1 2 cbr 210 ------- 1 1.0 5.0 29 33
- 0.20875 1 2 cbr 210 ------- 1 1.0 5.0 29 33
r 0.20961 1 2 cbr 210 ------- 1 1.0 5.0 15 19
+ 0.20961 2 3 cbr 210 ------- 1 1.0 5.0 15 19
r 0.21047 2 3 cbr 210 ------- 1 1.0 5.0 1 5
+ 0.21047 3 5 cbr 210 ------- 1 1.0 5.0 1 5
- 0.21047 3 5 cbr 210 ------- 1 1.0 5.0 1 5
+ 0.2125 1 2 cbr 210 ------- 1 1.0 5.0 30 34
- 0.2125 1 2 cbr 210 ------- 1 1.0 5.0 30 34
r 0.21336 1 2 cbr 210 ------- 1 1.0 5.0 16 20
+ 0.21336 2 3 cbr 210 ------- 1 1.0 5.0 16 20
d 0.21336 2 3 cbr 210 ------- 1 1.0 5.0 16 20
- 0.21341 2 3 cbr 210 ------- 1 1.0 5.0 8 12
r 0.214 0 2 tcp 1000 ------- 0 0.0 4.0 3 3
+ 0.214 2 3 tcp 1000 ------- 0 0.0 4.0 3 3
r 0.21422 2 3 cbr 210 ------- 1 1.0 5.0 2 6
+ 0.21422 3 5 cbr 210 ------- 1 1.0 5.0 2 6
- 0.21422 3 5 cbr 210 ------- 1 1.0 5.0 2 6
+ 0.21625 1 2 cbr 210 ------- 1 1.0 5.0 31 35
- 0.21625 1 2 cbr 210 ------- 1 1.0 5.0 31 35
- 0.21677 2 3 cbr 210 ------- 1 1.0 5.0 9 13
r 0.21711 1 2 cbr 210 ------- 1 1.0 5.0 17 21
+ 0.21711 2 3 cbr 210 ------- 1 1.0 5.0 17 21
r 0.21797 2 3 cbr 210 ------- 1 1.0 5.0 3 7
+ 0.21797 3 5 cbr 210 ------- 1 1.0 5.0 3 7
- 0.21797 3 5 cbr 210 ------- 1 1.0 5.0 3 7
+ 0.22 1 2 cbr 210 ------- 1 1.0 5.0 32 36
- 0.22 1 2 cbr 210 ------- 1 1.0 5.0 32 36
- 0.22013 2 3 cbr 210 ------- 1 1.0 5.0 10 14
r 0.22086 1 2 cbr 210 ------- 1 1.0 5.0 18 22
+ 0.22086 2 3 cbr 210 ------- 1 1.0 5.0 18 22
- 0.22349 2 3 cbr 210 ------- 1 1.0 5.0 11 15
+ 0.22375 1 2 cbr 210 ------- 1 1.0 5.0 33 37
- 0.22375 1 2 cbr 210 ------- 1 1.0 5.0 33 37
r 0.22461 1 2 cbr 210 ------- 1 1.0 5.0 19 23
+ 0.22461 2 3 cbr 210 ------- 1 1.0 5.0 19 23
- 0.22685 2 3 tcp 1000 ------- 0 0.0 4.0 2 2
+ 0.2275 1 2 cbr 210 ------- 1 1.0 5.0 34 38
- 0.2275 1 2 cbr 210 ------- 1 1.0 5.0 34 38
r 0.22836 1 2 cbr 210 ------- 1 1.0 5.0 20 24
+ 0.22836 2 3 cbr 210 ------- 1 1.0 5.0 20 24
+ 0.23125 1 2 cbr 210 ------- 1 1.0 5.0 35 39
- 0.23125 1 2 cbr 210 ------- 1 1.0 5.0 35 39
r 0.23211 1 2 cbr 210 ------- 1 1.0 5.0 21 25
+ 0.23211 2 3 cbr 210 ------- 1 1.0 5.0 21 25
d 0.23211 2 3 cbr 210 ------- 1 1.0 5.0 21 25
r 0.23397 2 3 tcp 1000 ------- 0 0.0 4.0 0 0
+ 0.23397 3 4 tcp 1000 ------- 0 0.0 4.0 0 0
- 0.23397 3 4 tcp 1000 ------- 0 0.0 4.0 0 0
+ 0.235 1 2 cbr 210 ------- 1 1.0 5.0 36 40
- 0.235 1 2 cbr 210 ------- 1 1.0 5.0 36 40
r 0.23586 1 2 cbr 210 ------- 1 1.0 5.0 22 26
+ 0.23586 2 3 cbr 210 ------- 1 1.0 5.0 22 26
d 0.23586 2 3 cbr 210 ------- 1 1.0 5.0 22 26
r 0.23733 2 3 cbr 210 ------- 1 1.0 5.0 4 8
+ 0.23733 3 5 cbr 210 ------- 1 1.0 5.0 4 8
- 0.23733 3 5 cbr 210 ------- 1 1.0 5.0 4 8
+ 0.23875 1 2 cbr 210 ------- 1 1.0 5.0 37 41
- 0.23875 1 2 cbr 210 ------- 1 1.0 5.0 37 41
r 0.23961 1 2 cbr 210 ------- 1 1.0 5.0 23 27
+ 0.23961 2 3 cbr 210 ------- 1 1.0 5.0 23 27
d 0.23961 2 3 cbr 210 ------- 1 1.0 5.0 23 27
r 0.24069 2 3 cbr 210 ------- 1 1.0 5.0 5 9
+ 0.24069 3 5 cbr 210 ------- 1 1.0 5.0 5 9
- 0.24069 3 5 cbr 210 ------- 1 1.0 5.0 5 9
+ 0.2425 1 2 cbr 210 ------- 1 1.0 5.0 38 42
- 0.2425 1 2 cbr 210 ------- 1 1.0 5.0 38 42
- 0.24285 2 3 cbr 210 ------- 1 1.0 5.0 12 16
r 0.24336 1 2 cbr 210 ------- 1 1.0 5.0 24 28
+ 0.24336 2 3 cbr 210 ------- 1 1.0 5.0 24 28
r 0.24405 2 3 cbr 210 ------- 1 1.0 5.0 6 10
+ 0.24405 3 5 cbr 210 ------- 1 1.0 5.0 6 10
- 0.24405 3 5 cbr 210 ------- 1 1.0 5.0 6 10
- 0.24621 2 3 cbr 210 ------- 1 1.0 5.0 13 17
+ 0.24625 1 2 cbr 210 ------- 1 1.0 5.0 39 43
- 0.24625 1 2 cbr 210 ------- 1 1.0 5.0 39 43
r 0.24711 1 2 cbr 210 ------- 1 1.0 5.0 25 29
+ 0.24711 2 3 cbr 210 ------- 1 1.0 5.0 25 29
r 0.24741 2 3 cbr 210 ------- 1 1.0 5.0 7 11
+ 0.24741 3 5 cbr 210 ------- 1 1.0 5.0 7 11
- 0.24741 3 5 cbr 210 ------- 1 1.0 5.0 7 11
- 0.24957 2 3 cbr 210 ------- 1 1.0 5.0 14 18
+ 0.25 1 2 cbr 210 ------- 1 1.0 5.0 40 44
- 0.25 1 2 cbr 210 ------- 1 1.0 5.0 40 44
r 0.25086 1 2 cbr 210 ------- 1 1.0 5.0 26 30
+ 0.25086 2 3 cbr 210 ------- 1 1.0 5.0 26 30
- 0.25293 2 3 cbr 210 ------- 1 1.0 5.0 15 19
+ 0.25375 1 2 cbr 210 ------- 1 1.0 5.0 41 45
- 0.25375 1 2 cbr 210 ------- 1 1.0 5.0 41 45
r 0.25461 1 2 cbr 210 ------- 1 1.0 5.0 27 31
+ 0.25461 2 3 cbr 210 ------- 1 1.0 5.0 27 31
- 0.25629 2 3 tcp 1000 ------- 0 0.0 4.0 3 3
+ 0.2575 1 2 cbr 210 ------- 1 1.0 5.0 42 46
- 0.2575 1 2 cbr 210 ------- 1 1.0 5.0 42 46
r 0.25836 1 2 cbr 210 ------- 1 1.0 5.0 28 32
+ 0.25836 2 3 cbr 210 ------- 1 1.0 5.0 28 32
r 0.26008 3 5 cbr 210 ------- 1 1.0 5.0 0 4
+ 0.26125 1 2 cbr 210 ------- 1 1.0 5.0 43 47
- 0.26125 1 2 cbr 210 ------- 1 1.0 5.0 43 47
r 0.26211 1 2 cbr 210 ------- 1 1.0 5.0 29 33
+ 0.26211 2 3 cbr 210 ------- 1 1.0 5.0 29 33
d 0.26211 2 3 cbr 210 ------- 1 1.0 5.0 29 33
r 0.26341 2 3 tcp 1000 ------- 0 0.0 4.0 1 1
+ 0.26341 3 4 tcp 1000 ------- 0 0.0 4.0 1 1
- 0.26341 3 4 tcp 1000 ------- 0 0.0 4.0 1 1
r 0.26383 3 5 cbr 210 ------- 1 1.0 5.0 1 5
+ 0.265 1 2 cbr 210 ------- 1 1.0 5.0 44 48
- 0.265 1 2 cbr 210 ------- 1 1.0 5.0 44 48
r 0.26586 1 2 cbr 210 ------- 1 1.0 5.0 30 34
+ 0.26586 2 3 cbr 210 ------- 1 1.0 5.0 30 34
d 0.26586 2 3 cbr 210 ------- 1 1.0 5.0 30 34
r 0.26677 2 3 cbr 210 ------- 1 1.0 5.0 8 12
+ 0.26677 3 5 cbr 210 ------- 1 1.0 5.0 8 12
- 0.26677 3 5 cbr 210 ------- 1 1.0 5.0 8 12
r 0.26758 3 5 cbr 210 ------- 1 1.0 5.0 2 6
+ 0.26875 1 2 cbr 210 ------- 1 1.0 5.0 45 49
- 0.26875 1 2 cbr 210 ------- 1 1.0 5.0 45 49
r 0.26961 1 2 cbr 210 ------- 1 1.0 5.0 31 35
+ 0.26961 2 3 cbr 210 ------- 1 1.0 5.0 31 35
d 0.26961 2 3 cbr 210 ------- 1 1.0 5.0 31 35
r 0.27013 2 3 cbr 210 ------- 1 1.0 5.0 9 13
+ 0.27013 3 5 cbr 210 ------- 1 1.0 5.0 9 13
- 0.27013 3 5 cbr 210 ------- 1 1.0 5.0 9 13
r 0.27133 3 5 cbr 210 ------- 1 1.0 5.0 3 7
- 0.27229 2 3 cbr 210 ------- 1 1.0 5.0 17 21
+ 0.2725 1 2 cbr 210 ------- 1 1.0 5.0 46 50
- 0.2725 1 2 cbr 210 ------- 1 1.0 5.0 46 50
r 0.27336 1 2 cbr 210 ------- 1 1.0 5.0 32 36
+ 0.27336 2 3 cbr 210 ------- 1 1.0 5.0 32 36
r 0.27349 2 3 cbr 210 ------- 1 1.0 5.0 10 14
+ 0.27349 3 5 cbr 210 ------- 1 1.0 5.0 10 14
- 0.27349 3 5 cbr 210 ------- 1 1.0 5.0 10 14
- 0.27565 2 3 cbr 210 ------- 1 1.0 5.0 18 22
+ 0.27625 1 2 cbr 210 ------- 1 1.0 5.0 47 51
- 0.27625 1 2 cbr 210 ------- 1 1.0 5.0 47 51
r 0.27685 2 3 cbr 210 ------- 1 1.0 5.0 11 15
+ 0.27685 3 5 cbr 210 ------- 1 1.0 5.0 11 15
- 0.27685 3 5 cbr 210 ------- 1 1.0 5.0 11 15
r 0.27711 1 2 cbr 210 ------- 1 1.0 5.0 33 37
+ 0.27711 2 3 cbr 210 ------- 1 1.0 5.0 33 37
- 0.27901 2 3 cbr 210 ------- 1 1.0 5.0 19 23
+ 0.28 1 2 cbr 210 ------- 1 1.0 5.0 48 52
- 0.28 1 2 cbr 210 ------- 1 1.0 5.0 48 52
r 0.28086 1 2 cbr 210 ------- 1 1.0 5.0 34 38
+ 0.28086 2 3 cbr 210 ------- 1 1.0 5.0 34 38
- 0.28237 2 3 cbr 210 ------- 1 1.0 5.0 20 24
+ 0.28375 1 2 cbr 210 ------- 1 1.0 5.0 49 53
- 0.28375 1 2 cbr 210 ------- 1 1.0 5.0 49 53
r 0.28461 1 2 cbr 210 ------- 1 1.0 5.0 35 39
+ 0.28461 2 3 cbr 210 ------- 1 1.0 5.0 35 39
- 0.28573 2 3 cbr 210 ------- 1 1.0 5.0 24 28
+ 0.2875 1 2 cbr 210 ------- 1 1.0 5.0 50 54
- 0.2875 1 2 cbr 210 ------- 1 1.0 5.0 50 54
r 0.28836 1 2 cbr 210 ------- 1 1.0 5.0 36 40
+ 0.28836 2 3 cbr 210 ------- 1 1.0 5.0 36 40
- 0.28909 2 3 cbr 210 ------- 1 1.0 5.0 25 29
r 0.29069 3 5 cbr 210 ------- 1 1.0 5.0 4 8
+ 0.29125 1 2 cbr 210 ------- 1 1.0 5.0 51 55
- 0.29125 1 2 cbr 210 ------- 1 1.0 5.0 51 55
r 0.29211 1 2 cbr 210 ------- 1 1.0 5.0 37 41
+ 0.29211 2 3 cbr 210 ------- 1 1.0 5.0 37 41
- 0.29245 2 3 cbr 210 ------- 1 1.0 5.0 26 30
r 0.29285 2 3 tcp 1000 ------- 0 0.0 4.0 2 2
+ 0.29285 3 4 tcp 1000 ------- 0 0.0 4.0 2 2
- 0.29285 3 4 tcp 1000 ------- 0 0.0 4.0 2 2
r 0.29405 3 5 cbr 210 ------- 1 1.0 5.0 5 9
+ 0.295 1 2 cbr 210 ------- 1 1.0 5.0 52 56
- 0.295 1 2 cbr 210 ------- 1 1.0 5.0 52 56
- 0.29581 2 3 cbr 210 ------- 1 1.0 5.0 27 31
r 0.29586 1 2 cbr 210 ------- 1 1.0 5.0 38 42
+ 0.29586 2 3 cbr 210 ------- 1 1.0 5.0 38 42
r 0.29621 2 3 cbr 210 ------- 1 1.0 5.0 12 16
+ 0.29621 3 5 cbr 210 ------- 1 1.0 5.0 12 16
- 0.29621 3 5 cbr 210 ------- 1 1.0 5.0 12 16
r 0.29741 3 5 cbr 210 ------- 1 1.0 5.0 6 10
+ 0.29875 1 2 cbr 210 ------- 1 1.0 5.0 53 57
- 0.29875 1 2 cbr 210 ------- 1 1.0 5.0 53 57
- 0.29917 2 3 cbr 210 ------- 1 1.0 5.0 28 32
r 0.29957 2 3 cbr 210 ------- 1 1.0 5.0 13 17
+ 0.29957 3 5 cbr 210 ------- 1 1.0 5.0 13 17
- 0.29957 3 5 cbr 210 ------- 1 1.0 5.0 13 17
r 0.29961 1 2 cbr 210 ------- 1 1.0 5.0 39 43
+ 0.29961 2 3 cbr 210 ------- 1 1.0 5.0 39 43
r 0.29997 3 4 tcp 1000 ------- 0 0.0 4.0 0 0
+ 0.29997 4 3 ack 40 ------- 0 4.0 0.0 0 58
- 0.29997 4 3 ack 40 ------- 0 4.0 0.0 0 58
r 0.30077 3 5 cbr 210 ------- 1 1.0 5.0 7 11
+ 0.3025 1 2 cbr 210 ------- 1 1.0 5.0 54 59
- 0.3025 1 2 cbr 210 ------- 1 1.0 5.0 54 59
- 0.30253 2 3 cbr 210 ------- 1 1.0 5.0 32 36
r 0.30293 2 3 cbr 210 ------- 1 1.0 5.0 14 18
+ 0.30293 3 5 cbr 210 ------- 1 1.0 5.0 14 18
- 0.30293 3 5 cbr 210 ------- 1 1.0 5.0 14 18
r 0.30336 1 2 cbr 210 ------- 1 1.0 5.0 40 44
+ 0.30336 2 3 cbr 210 ------- 1 1.0 5.0 40 44
- 0.30589 2 3 cbr 210 ------- 1 1.0 5.0 33 37
+ 0.30625 1 2 cbr 210 ------- 1 1.0 5.0 55 60
- 0.30625 1 2 cbr 210 ------- 1 1.0 5.0 55 60
r 0.30629 2 3 cbr 210 ------- 1 1.0 5.0 15 19
+ 0.30629 3 5 cbr 210 ------- 1 1.0 5.0 15 19
- 0.30629 3 5 cbr 210 ------- 1 1.0 5.0 15 19
r 0.30711 1 2 cbr 210 ------- 1 1.0 5.0 41 45
+ 0.30711 2 3 cbr 210 ------- 1 1.0 5.0 41 45
- 0.30925 2 3 cbr 210 ------- 1 1.0 5.0 34 38
+ 0.31 1 2 cbr 210 ------- 1 1.0 5.0 56 61
- 0.31 1 2 cbr 210 ------- 1 1.0 5.0 56 61
r 0.31086 1 2 cbr 210 ------- 1 1.0 5.0 42 46
+ 0.31086 2 3 cbr 210 ------- 1 1.0 5.0 42 46
- 0.31261 2 3 cbr 210 ------- 1 1.0 5.0 35 39
+ 0.31375 1 2 cbr 210 ------- 1 1.0 5.0 57 62
- 0.31375 1 2 cbr 210 ------- 1 1.0 5.0 57 62
r 0.31461 1 2 cbr 210 ------- 1 1.0 5.0 43 47
+ 0.31461 2 3 cbr 210 ------- 1 1.0 5.0 43 47
- 0.31597 2 3 cbr 210 ------- 1 1.0 5.0 36 40
+ 0.3175 1 2 cbr 210 ------- 1 1.0 5.0 58 63
- 0.3175 1 2 cbr 210 ------- 1 1.0 5.0 58 63
r 0.31836 1 2 cbr 210 ------- 1 1.0 5.0 44 48
+ 0.31836 2 3 cbr 210 ------- 1 1.0 5.0 44 48
- 0.31933 2 3 cbr 210 ------- 1 1.0 5.0 37 41
r 0.32013 3 5 cbr 210 ------- 1 1.0 5.0 8 12
+ 0.32125 1 2 cbr 210 ------- 1 1.0 5.0 59 64
- 0.32125 1 2 cbr 210 ------- 1 1.0 5.0 59 64
r 0.32211 1 2 cbr 210 ------- 1 1.0 5.0 45 49
+ 0.32211 2 3 cbr 210 ------- 1 1.0 5.0 45 49
r 0.32229 2 3 tcp 1000 ------- 0 0.0 4.0 3 3
+ 0.32229 3 4 tcp 1000 ------- 0 0.0 4.0 3 3
- 0.32229 3 4 tcp 1000 ------- 0 0.0 4.0 3 3
- 0.32269 2 3 cbr 210 ------- 1 1.0 5.0 38 42
r 0.32349 3 5 cbr 210 ------- 1 1.0 5.0 9 13
+ 0.325 1 2 cbr 210 ------- 1 1.0 5.0 60 65
- 0.325 1 2 cbr 210 ------- 1 1.0 5.0 60 65
r 0.32565 2 3 cbr 210 ------- 1 1.0 5.0 17 21
+ 0.32565 3 5 cbr 210 ------- 1 1.0 5.0 17 21
- 0.32565 3 5 cbr 210 ------- 1 1.0 5.0 17 21
r 0.32586 1 2 cbr 210 ------- 1 1.0 5.0 46 50
+ 0.32586 2 3 cbr 210 ------- 1 1.0 5.0 46 50
- 0.32605 2 3 cbr 210 ------- 1 1.0 5.0 39 43
r 0.32685 3 5 cbr 210 ------- 1 1.0 5.0 10 14
+ 0.32875 1 2 cbr 210 ------- 1 1.0 5.0 61 66
- 0.32875 1 2 cbr 210 ------- 1 1.0 5.0 61 66
r 0.32901 2 3 cbr 210 ------- 1 1.0 5.0 18 22
+ 0.32901 3 5 cbr 210 ------- 1 1.0 5.0 18 22
- 0.32901 3 5 cbr 210 ------- 1 1.0 5.0 18 22
- 0.32941 2 3 cbr 210 ------- 1 1.0 5.0 40 44
r 0.32941 3 4 tcp 1000 ------- 0 0.0 4.0 1 1
+ 0.32941 4 3 ack 40 ------- 0 4.0 0.0 1 67
- 0.32941 4 3 ack 40 ------- 0 4.0 0.0 1 67
r 0.32961 1 2 cbr 210 ------- 1 1.0 5.0 47 51
+ 0.32961 2 3 cbr 210 ------- 1 1.0 5.0 47 51
r 0.33021 3 5 cbr 210 ------- 1 1.0 5.0 11 15
r 0.33237 2 3 cbr 210 ------- 1 1.0 5.0 19 23
+ 0.33237 3 5 cbr 210 ------- 1 1.0 5.0 19 23
- 0.33237 3 5 cbr 210 ------- 1 1.0 5.0 19 23
+ 0.3325 1 2 cbr 210 ------- 1 1.0 5.0 62 68
- 0.3325 1 2 cbr 210 ------- 1 1.0 5.0 62 68
- 0.33277 2 3 cbr 210 ------- 1 1.0 5.0 41 45
r 0.33336 1 2 cbr 210 ------- 1 1.0 5.0 48 52
+ 0.33336 2 3 cbr 210 ------- 1 1.0 5.0 48 52
r 0.33573 2 3 cbr 210 ------- 1 1.0 5.0 20 24
+ 0.33573 3 5 cbr 210 ------- 1 1.0 5.0 20 24
- 0.33573 3 5 cbr 210 ------- 1 1.0 5.0 20 24
- 0.33613 2 3 cbr 210 ------- 1 1.0 5.0 42 46
+ 0.33625 1 2 cbr 210 ------- 1 1.0 5.0 63 69
- 0.33625 1 2 cbr 210 ------- 1 1.0 5.0 63 69
r 0.33711 1 2 cbr 210 ------- 1 1.0 5.0 49 53
+ 0.33711 2 3 cbr 210 ------- 1 1.0 5.0 49 53
r 0.33909 2 3 cbr 210 ------- 1 1.0 5.0 24 28
+ 0.33909 3 5 cbr 210 ------- 1 1.0 5.0 24 28
- 0.33909 3 5 cbr 210 ------- 1 1.0 5.0 24 28
- 0.33949 2 3 cbr 210 ------- 1 1.0 5.0 43 47
+ 0.34 1 2 cbr 210 ------- 1 1.0 5.0 64 70
- 0.34 1 2 cbr 210 ------- 1 1.0 5.0 64 70
r 0.34086 1 2 cbr 210 ------- 1 1.0 5.0 50 54
+ 0.34086 2 3 cbr 210 ------- 1 1.0 5.0 50 54
r 0.34245 2 3 cbr 210 ------- 1 1.0 5.0 25 29
+ 0.34245 3 5 cbr 210 ------- 1 1.0 5.0 25 29
- 0.34245 3 5 cbr 210 ------- 1 1.0 5.0 25 29
- 0.34285 2 3 cbr 210 ------- 1 1.0 5.0 44 48
+ 0.34375 1 2 cbr 210 ------- 1 1.0 5.0 65 71
- 0.34375 1 2 cbr 210 ------- 1 1.0 5.0 65 71
r 0.34461 1 2 cbr 210 ------- 1 1.0 5.0 51 55
+ 0.34461 2 3 cbr 210 ------- 1 1.0 5.0 51 55
r 0.34581 2 3 cbr 210 ------- 1 1.0 5.0 26 30
+ 0.34581 3 5 cbr 210 ------- 1 1.0 5.0 26 30
- 0.34581 3 5 cbr 210 ------- 1 1.0 5.0 26 30
- 0.34621 2 3 cbr 210 ------- 1 1.0 5.0 45 49
+ 0.3475 1 2 cbr 210 ------- 1 1.0 5.0 66 72
- 0.3475 1 2 cbr 210 ------- 1 1.0 5.0 66 72
r 0.34836 1 2 cbr 210 ------- 1 1.0 5.0 52 56
+ 0.34836 2 3 cbr 210 ------- 1 1.0 5.0 52 56
r 0.34917 2 3 cbr 210 ------- 1 1.0 5.0 27 31
+ 0.34917 3 5 cbr 210 ------- 1 1.0 5.0 27 31
- 0.34917 3 5 cbr 210 ------- 1 1.0 5.0 27 31
- 0.34957 2 3 cbr 210 ------- 1 1.0 5.0 46 50
r 0.34957 3 5 cbr 210 ------- 1 1.0 5.0 12 16
r 0.35061 4 3 ack 40 ------- 0 4.0 0.0 0 58
+ 0.35061 3 2 ack 40 ------- 0 4.0 0.0 0 58
- 0.35061 3 2 ack 40 ------- 0 4.0 0.0 0 58
+ 0.35125 1 2 cbr 210 ------- 1 1.0 5.0 67 73
- 0.35125 1 2 cbr 210 ------- 1 1.0 5.0 67 73
r 0.35211 1 2 cbr 210 ------- 1 1.0 5.0 53 57
+ 0.35211 2 3 cbr 210 ------- 1 1.0 5.0 53 57
r 0.35253 2 3 cbr 210 ------- 1 1.0 5.0 28 32
+ 0.35253 3 5 cbr 210 ------- 1 1.0 5.0 28 32
- 0.35253 3 5 cbr 210 ------- 1 1.0 5.0 28 32
- 0.35293 2 3 cbr 210 ------- 1 1.0 5.0 47 51
r 0.35293 3 5 cbr 210 ------- 1 1.0 5.0 13 17
+ 0.355 1 2 cbr 210 ------- 1 1.0 5.0 68 74
- 0.355 1 2 cbr 210 ------- 1 1.0 5.0 68 74
r 0.35586 1 2 cbr 210 ------- 1 1.0 5.0 54 59
+ 0.35586 2 3 cbr 210 ------- 1 1.0 5.0 54 59
r 0.35589 2 3 cbr 210 ------- 1 1.0 5.0 32 36
+ 0.35589 3 5 cbr 210 ------- 1 1.0 5.0 32 36
- 0.35589 3 5 cbr 210 ------- 1 1.0 5.0 32 36
- 0.35629 2 3 cbr 210 ------- 1 1.0 5.0 48 52
r 0.35629 3 5 cbr 210 ------- 1 1.0 5.0 14 18
+ 0.35875 1 2 cbr 210 ------- 1 1.0 5.0 69 75
- 0.35875 1 2 cbr 210 ------- 1 1.0 5.0 69 75
r 0.35885 3 4 tcp 1000 ------- 0 0.0 4.0 2 2
+ 0.35885 4 3 ack 40 ------- 0 4.0 0.0 2 76
- 0.35885 4 3 ack 40 ------- 0 4.0 0.0 2 76
r 0.35925 2 3 cbr 210 ------- 1 1.0 5.0 33 37
+ 0.35925 3 5 cbr 210 ------- 1 1.0 5.0 33 37
- 0.35925 3 5 cbr 210 ------- 1 1.0 5.0 33 37
r 0.35961 1 2 cbr 210 ------- 1 1.0 5.0 55 60
+ 0.35961 2 3 cbr 210 ------- 1 1.0 5.0 55 60
- 0.35965 2 3 cbr 210 ------- 1 1.0 5.0 49 53
r 0.35965 3 5 cbr 210 ------- 1 1.0 5.0 15 19
+ 0.3625 1 2 cbr 210 ------- 1 1.0 5.0 70 77
- 0.3625 1 2 cbr 210 ------- 1 1.0 5.0 70 77
r 0.36261 2 3 cbr 210 ------- 1 1.0 5.0 34 38
+ 0.36261 3 5 cbr 210 ------- 1 1.0 5.0 34 38
- 0.36261 3 5 cbr 210 ------- 1 1.0 5.0 34 38
- 0.36301 2 3 cbr 210 ------- 1 1.0 5.0 50 54
r 0.36336 1 2 cbr 210 ------- 1 1.0 5.0 56 61
+ 0.36336 2 3 cbr 210 ------- 1 1.0 5.0 56 61
r 0.36597 2 3 cbr 210 ------- 1 1.0 5.0 35 39
+ 0.36597 3 5 cbr 210 ------- 1 1.0 5.0 35 39
- 0.36597 3 5 cbr 210 ------- 1 1.0 5.0 35 39
+ 0.36625 1 2 cbr 210 ------- 1 1.0 5.0 71 78
- 0.36625 1 2 cbr 210 ------- 1 1.0 5.0 71 78
- 0.36637 2 3 cbr 210 ------- 1 1.0 5.0 51 55
r 0.36711 1 2 cbr 210 ------- 1 1.0 5.0 57 62
+ 0.36711 2 3 cbr 210 ------- 1 1.0 5.0 57 62
r 0.36933 2 3 cbr 210 ------- 1 1.0 5.0 36 40
+ 0.36933 3 5 cbr 210 ------- 1 1.0 5.0 36 40
- 0.36933 3 5 cbr 210 ------- 1 1.0 5.0 36 40
- 0.36973 2 3 cbr 210 ------- 1 1.0 5.0 52 56
+ 0.37 1 2 cbr 210 ------- 1 1.0 5.0 72 79
- 0.37 1 2 cbr 210 ------- 1 1.0 5.0 72 79
r 0.37086 1 2 cbr 210 ------- 1 1.0 5.0 58 63
+ 0.37086 2 3 cbr 210 ------- 1 1.0 5.0 58 63
r 0.37269 2 3 cbr 210 ------- 1 1.0 5.0 37 41
+ 0.37269 3 5 cbr 210 ------- 1 1.0 5.0 37 41
- 0.37269 3 5 cbr 210 ------- 1 1.0 5.0 37 41
- 0.37309 2 3 cbr 210 ------- 1 1.0 5.0 53 57
+ 0.37375 1 2 cbr 210 ------- 1 1.0 5.0 73 80
- 0.37375 1 2 cbr 210 ------- 1 1.0 5.0 73 80
r 0.37461 1 2 cbr 210 ------- 1 1.0 5.0 59 64
+ 0.37461 2 3 cbr 210 ------- 1 1.0 5.0 59 64
r 0.37605 2 3 cbr 210 ------- 1 1.0 5.0 38 42
+ 0.37605 3 5 cbr 210 ------- 1 1.0 5.0 38 42
- 0.37605 3 5 cbr 210 ------- 1 1.0 5.0 38 42
- 0.37645 2 3 cbr 210 ------- 1 1.0 5.0 54 59
+ 0.3775 1 2 cbr 210 ------- 1 1.0 5.0 74 81
- 0.3775 1 2 cbr 210 ------- 1 1.0 5.0 74 81
r 0.37836 1 2 cbr 210 ------- 1 1.0 5.0 60 65
+ 0.37836 2 3 cbr 210 ------- 1 1.0 5.0 60 65
r 0.37901 3 5 cbr 210 ------- 1 1.0 5.0 17 21
r 0.37941 2 3 cbr 210 ------- 1 1.0 5.0 39 43
+ 0.37941 3 5 cbr 210 ------- 1 1.0 5.0 39 43
- 0.37941 3 5 cbr 210 ------- 1 1.0 5.0 39 43
- 0.37981 2 3 cbr 210 ------- 1 1.0 5.0 55 60
r 0.38005 4 3 ack 40 ------- 0 4.0 0.0 1 67
+ 0.38005 3 2 ack 40 ------- 0 4.0 0.0 1 67
- 0.38005 3 2 ack 40 ------- 0 4.0 0.0 1 67
+ 0.38125 1 2 cbr 210 ------- 1 1.0 5.0 75 82
- 0.38125 1 2 cbr 210 ------- 1 1.0 5.0 75 82
r 0.38211 1 2 cbr 210 ------- 1 1.0 5.0 61 66
+ 0.38211 2 3 cbr 210 ------- 1 1.0 5.0 61 66
r 0.38237 3 5 cbr 210 ------- 1 1.0 5.0 18 22
r 0.38277 2 3 cbr 210 ------- 1 1.0 5.0 40 44
+ 0.38277 3 5 cbr 210 ------- 1 1.0 5.0 40 44
- 0.38277 3 5 cbr 210 ------- 1 1.0 5.0 40 44
- 0.38317 2 3 cbr 210 ------- 1 1.0 5.0 56 61
+ 0.385 1 2 cbr 210 ------- 1 1.0 5.0 76 83
- 0.385 1 2 cbr 210 ------- 1 1.0 5.0 76 83
r 0.38573 3 5 cbr 210 ------- 1 1.0 5.0 19 23
r 0.38586 1 2 cbr 210 ------- 1 1.0 5.0 62 68
+ 0.38586 2 3 cbr 210 ------- 1 1.0 5.0 62 68
r 0.38613 2 3 cbr 210 ------- 1 1.0 5.0 41 45
+ 0.38613 3 5 cbr 210 ------- 1 1.0 5.0 41 45
- 0.38613 3 5 cbr 210 ------- 1 1.0 5.0 41 45
- 0.38653 2 3 cbr 210 ------- 1 1.0 5.0 57 62
r 0.38829 3 4 tcp 1000 ------- 0 0.0 4.0 3 3
+ 0.38829 4 3 ack 40 ------- 0 4.0 0.0 3 84
- 0.38829 4 3 ack 40 ------- 0 4.0 0.0 3 84
+ 0.38875 1 2 cbr 210 ------- 1 1.0 5.0 77 85
- 0.38875 1 2 cbr 210 ------- 1 1.0 5.0 77 85
r 0.38909 3 5 cbr 210 ------- 1 1.0 5.0 20 24
r 0.38949 2 3 cbr 210 ------- 1 1.0 5.0 42 46
+ 0.38949 3 5 cbr 210 ------- 1 1.0 5.0 42 46
- 0.38949 3 5 cbr 210 ------- 1 1.0 5.0 42 46
r 0.38961 1 2 cbr 210 ------- 1 1.0 5.0 63 69
+ 0.38961 2 3 cbr 210 ------- 1 1.0 5.0 63 69
- 0.38989 2 3 cbr 210 ------- 1 1.0 5.0 58 63
r 0.39245 3 5 cbr 210 ------- 1 1.0 5.0 24 28
+ 0.3925 1 2 cbr 210 ------- 1 1.0 5.0 78 86
- 0.3925 1 2 cbr 210 ------- 1 1.0 5.0 78 86
r 0.39285 2 3 cbr 210 ------- 1 1.0 5.0 43 47
+ 0.39285 3 5 cbr 210 ------- 1 1.0 5.0 43 47
- 0.39285 3 5 cbr 210 ------- 1 1.0 5.0 43 47
- 0.39325 2 3 cbr 210 ------- 1 1.0 5.0 59 64
r 0.39336 1 2 cbr 210 ------- 1 1.0 5.0 64 70
+ 0.39336 2 3 cbr 210 ------- 1 1.0 5.0 64 70
r 0.39581 3 5 cbr 210 ------- 1 1.0 5.0 25 29
r 0.39621 2 3 cbr 210 ------- 1 1.0 5.0 44 48
+ 0.39621 3 5 cbr 210 ------- 1 1.0 5.0 44 48
- 0.39621 3 5 cbr 210 ------- 1 1.0 5.0 44 48
+ 0.39625 1 2 cbr 210 ------- 1 1.0 5.0 79 87
- 0.39625 1 2 cbr 210 ------- 1 1.0 5.0 79 87
- 0.39661 2 3 cbr 210 ------- 1 1.0 5.0 60 65
r 0.39711 1 2 cbr 210 ------- 1 1.0 5.0 65 71
+ 0.39711 2 3 cbr 210 ------- 1 1.0 5.0 65 71
r 0.39917 3 5 cbr 210 ------- 1 1.0 5.0 26 30
r 0.39957 2 3 cbr 210 ------- 1 1.0 5.0 45 49
+ 0.39957 3 5 cbr 210 ------- 1 1.0 5.0 45 49
- 0.39957 3 5 cbr 210 ------- 1 1.0 5.0 45 49
- 0.39997 2 3 cbr 210 ------- 1 1.0 5.0 61 66
+ 0.4 1 2 cbr 210 ------- 1 1.0 5.0 80 88
- 0.4 1 2 cbr 210 ------- 1 1.0 5.0 80 88
r 0.40086 1 2 cbr 210 ------- 1 1.0 5.0 66 72
+ 0.40086 2 3 cbr 210 ------- 1 1.0 5.0 66 72
r 0.40125 3 2 ack 40 ------- 0 4.0 0.0 0 58
+ 0.40125 2 0 ack 40 ------- 0 4.0 0.0 0 58
- 0.40125 2 0 ack 40 ------- 0 4.0 0.0 0 58
r 0.40253 3 5 cbr 210 ------- 1 1.0 5.0 27 31
r 0.40293 2 3 cbr 210 ------- 1 1.0 5.0 46 50
+ 0.40293 3 5 cbr 210 ------- 1 1.0 5.0 46 50
- 0.40293 3 5 cbr 210 ------- 1 1.0 5.0 46 50
- 0.40333 2 3 cbr 210 ------- 1 1.0 5.0 62 68
+ 0.40375 1 2 cbr 210 ------- 1 1.0 5.0 81 89
- 0.40375 1 2 cbr 210 ------- 1 1.0 5.0 81 89
r 0.40461 1 2 cbr 210 ------- 1 1.0 5.0 67 73
+ 0.40461 2 3 cbr 210 ------- 1 1.0 5.0 67 73
r 0.40589 3 5 cbr 210 ------- 1 1.0 5.0 28 32
r 0.40629 2 3 cbr 210 ------- 1 1.0 5.0 47 51
+ 0.40629 3 5 cbr 210 ------- 1 1.0 5.0 47 51
- 0.40629 3 5 cbr 210 ------- 1 1.0 5.0 47 51
- 0.40669 2 3 cbr 210 ------- 1 1.0 5.0 63 69
+ 0.4075 1 2 cbr 210 ------- 1 1.0 5.0 82 90
- 0.4075 1 2 cbr 210 ------- 1 1.0 5.0 82 90
r 0.40836 1 2 cbr 210 ------- 1 1.0 5.0 68 74
+ 0.40836 2 3 cbr 210 ------- 1 1.0 5.0 68 74
r 0.40925 3 5 cbr 210 ------- 1 1.0 5.0 32 36
r 0.40949 4 3 ack 40 ------- 0 4.0 0.0 2 76
+ 0.40949 3 2 ack 40 ------- 0 4.0 0.0 2 76
- 0.40949 3 2 ack 40 ------- 0 4.0 0.0 2 76
r 0.40965 2 3 cbr 210 ------- 1 1.0 5.0 48 52
+ 0.40965 3 5 cbr 210 ------- 1 1.0 5.0 48 52
- 0.40965 3 5 cbr 210 ------- 1 1.0 5.0 48 52
- 0.41005 2 3 cbr 210 ------- 1 1.0 5.0 64 70
+ 0.41125 1 2 cbr 210 ------- 1 1.0 5.0 83 91
- 0.41125 1 2 cbr 210 ------- 1 1.0 5.0 83 91
r 0.41211 1 2 cbr 210 ------- 1 1.0 5.0 69 75
+ 0.41211 2 3 cbr 210 ------- 1 1.0 5.0 69 75
r 0.41261 3 5 cbr 210 ------- 1 1.0 5.0 33 37
r 0.41301 2 3 cbr 210 ------- 1 1.0 5.0 49 53
+ 0.41301 3 5 cbr 210 ------- 1 1.0 5.0 49 53
- 0.41301 3 5 cbr 210 ------- 1 1.0 5.0 49 53
- 0.41341 2 3 cbr 210 ------- 1 1.0 5.0 65 71
+ 0.415 1 2 cbr 210 ------- 1 1.0 5.0 84 92
- 0.415 1 2 cbr 210 ------- 1 1.0 5.0 84 92
r 0.41586 1 2 cbr 210 ------- 1 1.0 5.0 70 77
+ 0.41586 2 3 cbr 210 ------- 1 1.0 5.0 70 77
r 0.41597 3 5 cbr 210 ------- 1 1.0 5.0 34 38
r 0.41637 2 3 cbr 210 ------- 1 1.0 5.0 50 54
+ 0.41637 3 5 cbr 210 ------- 1 1.0 5.0 50 54
- 0.41637 3 5 cbr 210 ------- 1 1.0 5.0 50 54
- 0.41677 2 3 cbr 210 ------- 1 1.0 5.0 66 72
+ 0.41875 1 2 cbr 210 ------- 1 1.0 5.0 85 93
- 0.41875 1 2 cbr 210 ------- 1 1.0 5.0 85 93
r 0.41933 3 5 cbr 210 ------- 1 1.0 5.0 35 39
r 0.41961 1 2 cbr 210 ------- 1 1.0 5.0 71 78
+ 0.41961 2 3 cbr 210 ------- 1 1.0 5.0 71 78
r 0.41973 2 3 cbr 210 ------- 1 1.0 5.0 51 55
+ 0.41973 3 5 cbr 210 ------- 1 1.0 5.0 51 55
- 0.41973 3 5 cbr 210 ------- 1 1.0 5.0 51 55
- 0.42013 2 3 cbr 210 ------- 1 1.0 5.0 67 73
+ 0.4225 1 2 cbr 210 ------- 1 1.0 5.0 86 94
- 0.4225 1 2 cbr 210 ------- 1 1.0 5.0 86 94
r 0.42269 3 5 cbr 210 ------- 1 1.0 5.0 36 40
r 0.42309 2 3 cbr 210 ------- 1 1.0 5.0 52 56
+ 0.42309 3 5 cbr 210 ------- 1 1.0 5.0 52 56
- 0.42309 3 5 cbr 210 ------- 1 1.0 5.0 52 56
r 0.42336 1 2 cbr 210 ------- 1 1.0 5.0 72 79
+ 0.42336 2 3 cbr 210 ------- 1 1.0 5.0 72 79
- 0.42349 2 3 cbr 210 ------- 1 1.0 5.0 68 74
r 0.42605 3 5 cbr 210 ------- 1 1.0 5.0 37 41
+ 0.42625 1 2 cbr 210 ------- 1 1.0 5.0 87 95
- 0.42625 1 2 cbr 210 ------- 1 1.0 5.0 87 95
r 0.42645 2 3 cbr 210 ------- 1 1.0 5.0 53 57
+ 0.42645 3 5 cbr 210 ------- 1 1.0 5.0 53 57
- 0.42645 3 5 cbr 210 ------- 1 1.0 5.0 53 57
- 0.42685 2 3 cbr 210 ------- 1 1.0 5.0 69 75
r 0.42711 1 2 cbr 210 ------- 1 1.0 5.0 73 80
+ 0.42711 2 3 cbr 210 ------- 1 1.0 5.0 73 80
r 0.42941 3 5 cbr 210 ------- 1 1.0 5.0 38 42
r 0.42981 2 3 cbr 210 ------- 1 1.0 5.0 54 59
+ 0.42981 3 5 cbr 210 ------- 1 1.0 5.0 54 59
- 0.42981 3 5 cbr 210 ------- 1 1.0 5.0 54 59
+ 0.43 1 2 cbr 210 ------- 1 1.0 5.0 88 96
- 0.43 1 2 cbr 210 ------- 1 1.0 5.0 88 96
- 0.43021 2 3 cbr 210 ------- 1 1.0 5.0 70 77
r 0.43069 3 2 ack 40 ------- 0 4.0 0.0 1 67
+ 0.43069 2 0 ack 40 ------- 0 4.0 0.0 1 67
- 0.43069 2 0 ack 40 ------- 0 4.0 0.0 1 67
r 0.43086 1 2 cbr 210 ------- 1 1.0 5.0 74 81
+ 0.43086 2 3 cbr 210 ------- 1 1.0 5.0 74 81
r 0.43277 3 5 cbr 210 ------- 1 1.0 5.0 39 43
r 0.43317 2 3 cbr 210 ------- 1 1.0 5.0 55 60
+ 0.43317 3 5 cbr 210 ------- 1 1.0 5.0 55 60
- 0.43317 3 5 cbr 210 ------- 1 1.0 5.0 55 60
- 0.43357 2 3 cbr 210 ------- 1 1.0 5.0 71 78
+ 0.43375 1 2 cbr 210 ------- 1 1.0 5.0 89 97
- 0.43375 1 2 cbr 210 ------- 1 1.0 5.0 89 97
r 0.43461 1 2 cbr 210 ------- 1 1.0 5.0 75 82
+ 0.43461 2 3 cbr 210 ------- 1 1.0 5.0 75 82
r 0.43613 3 5 cbr 210 ------- 1 1.0 5.0 40 44
r 0.43653 2 3 cbr 210 ------- 1 1.0 5.0 56 61
+ 0.43653 3 5 cbr 210 ------- 1 1.0 5.0 56 61
- 0.43653 3 5 cbr 210 ------- 1 1.0 5.0 56 61
- 0.43693 2 3 cbr 210 ------- 1 1.0 5.0 72 79
+ 0.4375 1 2 cbr 210 ------- 1 1.0 5.0 90 98
- 0.4375 1 2 cbr 210 ------- 1 1.0 5.0 90 98
r 0.43836 1 2 cbr 210 ------- 1 1.0 5.0 76 83
+ 0.43836 2 3 cbr 210 ------- 1 1.0 5.0 76 83
r 0.43893 4 3 ack 40 ------- 0 4.0 0.0 3 84
+ 0.43893 3 2 ack 40 ------- 0 4.0 0.0 3 84
- 0.43893 3 2 ack 40 ------- 0 4.0 0.0 3 84
r 0.43949 3 5 cbr 210 ------- 1 1.0 5.0 41 45
r 0.43989 2 3 cbr 210 ------- 1 1.0 5.0 57 62
+ 0.43989 3 5 cbr 210 ------- 1 1.0 5.0 57 62
- 0.43989 3 5 cbr 210 ------- 1 1.0 5.0 57 62
- 0.44029 2 3 cbr 210 ------- 1 1.0 5.0 73 80