v 0 eval {set sim_annotation {Normal operation of <Slow Start> with max window size, 8}}
+ 0.1 0 2 tcp 1000 ------- 2 0.0 4.0 0 0
- 0.1 0 2 tcp 1000 ------- 2 0.0 4.0 0 0
+ 0.1 1 2 cbr 500 ------- 3 1.0 5.0 0 1
- 0.1 1 2 cbr 500 ------- 3 1.0 5.0 0 1
v 0.10000000000000001 eval {set sim_annotation {FTP starts at 0.1}}
v 0.10000000000000001 eval {set sim_annotation {CBR starts at 0.1}}
v 0.11 eval {set sim_annotation {Initial window size is 1}}
r 0.128 1 2 cbr 500 ------- 3 1.0 5.0 0 1
+ 0.128 2 3 cbr 500 ------- 3 1.0 5.0 0 1
- 0.128 2 3 cbr 500 ------- 3 1.0 5.0 0 1
r 0.136 0 2 tcp 1000 ------- 2 0.0 4.0 0 0
+ 0.136 2 3 tcp 1000 ------- 2 0.0 4.0 0 0
- 0.136 2 3 tcp 1000 ------- 2 0.0 4.0 0 0
+ 0.15 1 2 cbr 500 ------- 3 1.0 5.0 1 2
- 0.15 1 2 cbr 500 ------- 3 1.0 5.0 1 2
r 0.156 2 3 cbr 500 ------- 3 1.0 5.0 0 1
+ 0.156 3 5 cbr 500 ------- 3 1.0 5.0 0 1
- 0.156 3 5 cbr 500 ------- 3 1.0 5.0 0 1
r 0.172 2 3 tcp 1000 ------- 2 0.0 4.0 0 0
+ 0.172 3 4 tcp 1000 ------- 2 0.0 4.0 0 0
- 0.172 3 4 tcp 1000 ------- 2 0.0 4.0 0 0
r 0.178 1 2 cbr 500 ------- 3 1.0 5.0 1 2
+ 0.178 2 3 cbr 500 ------- 3 1.0 5.0 1 2
- 0.178 2 3 cbr 500 ------- 3 1.0 5.0 1 2
r 0.184 3 5 cbr 500 ------- 3 1.0 5.0 0 1
+ 0.2 1 2 cbr 500 ------- 3 1.0 5.0 2 3
- 0.2 1 2 cbr 500 ------- 3 1.0 5.0 2 3
r 0.206 2 3 cbr 500 ------- 3 1.0 5.0 1 2
+ 0.206 3 5 cbr 500 ------- 3 1.0 5.0 1 2
- 0.206 3 5 cbr 500 ------- 3 1.0 5.0 1 2
r 0.208 3 4 tcp 1000 ------- 2 0.0 4.0 0 0
+ 0.208 4 3 ack 40 ------- 2 4.0 0.0 0 4
- 0.208 4 3 ack 40 ------- 2 4.0 0.0 0 4
v 0.22 eval {set sim_annotation {1 ack is coming}}
r 0.228 1 2 cbr 500 ------- 3 1.0 5.0 2 3
+ 0.228 2 3 cbr 500 ------- 3 1.0 5.0 2 3
- 0.228 2 3 cbr 500 ------- 3 1.0 5.0 2 3
r 0.22864 4 3 ack 40 ------- 2 4.0 0.0 0 4
+ 0.22864 3 2 ack 40 ------- 2 4.0 0.0 0 4
- 0.22864 3 2 ack 40 ------- 2 4.0 0.0 0 4
r 0.234 3 5 cbr 500 ------- 3 1.0 5.0 1 2
r 0.24928 3 2 ack 40 ------- 2 4.0 0.0 0 4
+ 0.24928 2 0 ack 40 ------- 2 4.0 0.0 0 4
- 0.24928 2 0 ack 40 ------- 2 4.0 0.0 0 4
+ 0.25 1 2 cbr 500 ------- 3 1.0 5.0 3 5
- 0.25 1 2 cbr 500 ------- 3 1.0 5.0 3 5
r 0.256 2 3 cbr 500 ------- 3 1.0 5.0 2 3
+ 0.256 3 5 cbr 500 ------- 3 1.0 5.0 2 3
- 0.256 3 5 cbr 500 ------- 3 1.0 5.0 2 3
v 0.26000000000000001 eval {set sim_annotation {Increase window size to 2}}
r 0.26992 2 0 ack 40 ------- 2 4.0 0.0 0 4
+ 0.26992 0 2 tcp 1000 ------- 2 0.0 4.0 1 6
- 0.26992 0 2 tcp 1000 ------- 2 0.0 4.0 1 6
+ 0.26992 0 2 tcp 1000 ------- 2 0.0 4.0 2 7
r 0.278 1 2 cbr 500 ------- 3 1.0 5.0 3 5
+ 0.278 2 3 cbr 500 ------- 3 1.0 5.0 3 5
- 0.278 2 3 cbr 500 ------- 3 1.0 5.0 3 5
r 0.284 3 5 cbr 500 ------- 3 1.0 5.0 2 3
- 0.28592 0 2 tcp 1000 ------- 2 0.0 4.0 2 7
+ 0.3 1 2 cbr 500 ------- 3 1.0 5.0 4 8
- 0.3 1 2 cbr 500 ------- 3 1.0 5.0 4 8
r 0.30592 0 2 tcp 1000 ------- 2 0.0 4.0 1 6
+ 0.30592 2 3 tcp 1000 ------- 2 0.0 4.0 1 6
- 0.30592 2 3 tcp 1000 ------- 2 0.0 4.0 1 6
r 0.306 2 3 cbr 500 ------- 3 1.0 5.0 3 5
+ 0.306 3 5 cbr 500 ------- 3 1.0 5.0 3 5
- 0.306 3 5 cbr 500 ------- 3 1.0 5.0 3 5
r 0.32192 0 2 tcp 1000 ------- 2 0.0 4.0 2 7
+ 0.32192 2 3 tcp 1000 ------- 2 0.0 4.0 2 7
- 0.32192 2 3 tcp 1000 ------- 2 0.0 4.0 2 7
r 0.328 1 2 cbr 500 ------- 3 1.0 5.0 4 8
+ 0.328 2 3 cbr 500 ------- 3 1.0 5.0 4 8
r 0.334 3 5 cbr 500 ------- 3 1.0 5.0 3 5
- 0.33792 2 3 cbr 500 ------- 3 1.0 5.0 4 8
r 0.34192 2 3 tcp 1000 ------- 2 0.0 4.0 1 6
+ 0.34192 3 4 tcp 1000 ------- 2 0.0 4.0 1 6
- 0.34192 3 4 tcp 1000 ------- 2 0.0 4.0 1 6
+ 0.35 1 2 cbr 500 ------- 3 1.0 5.0 5 9
- 0.35 1 2 cbr 500 ------- 3 1.0 5.0 5 9
r 0.35792 2 3 tcp 1000 ------- 2 0.0 4.0 2 7
+ 0.35792 3 4 tcp 1000 ------- 2 0.0 4.0 2 7
- 0.35792 3 4 tcp 1000 ------- 2 0.0 4.0 2 7
r 0.36592 2 3 cbr 500 ------- 3 1.0 5.0 4 8
+ 0.36592 3 5 cbr 500 ------- 3 1.0 5.0 4 8
- 0.36592 3 5 cbr 500 ------- 3 1.0 5.0 4 8
r 0.37792 3 4 tcp 1000 ------- 2 0.0 4.0 1 6
+ 0.37792 4 3 ack 40 ------- 2 4.0 0.0 1 10
- 0.37792 4 3 ack 40 ------- 2 4.0 0.0 1 10
r 0.378 1 2 cbr 500 ------- 3 1.0 5.0 5 9
+ 0.378 2 3 cbr 500 ------- 3 1.0 5.0 5 9
- 0.378 2 3 cbr 500 ------- 3 1.0 5.0 5 9
v 0.38 eval {set sim_annotation {2 acks are coming}}
r 0.39392 3 4 tcp 1000 ------- 2 0.0 4.0 2 7
+ 0.39392 4 3 ack 40 ------- 2 4.0 0.0 2 11
- 0.39392 4 3 ack 40 ------- 2 4.0 0.0 2 11
r 0.39392 3 5 cbr 500 ------- 3 1.0 5.0 4 8
r 0.39856 4 3 ack 40 ------- 2 4.0 0.0 1 10
+ 0.39856 3 2 ack 40 ------- 2 4.0 0.0 1 10
- 0.39856 3 2 ack 40 ------- 2 4.0 0.0 1 10
+ 0.4 1 2 cbr 500 ------- 3 1.0 5.0 6 12
- 0.4 1 2 cbr 500 ------- 3 1.0 5.0 6 12
r 0.406 2 3 cbr 500 ------- 3 1.0 5.0 5 9
+ 0.406 3 5 cbr 500 ------- 3 1.0 5.0 5 9
- 0.406 3 5 cbr 500 ------- 3 1.0 5.0 5 9
r 0.41456 4 3 ack 40 ------- 2 4.0 0.0 2 11
+ 0.41456 3 2 ack 40 ------- 2 4.0 0.0 2 11
- 0.41456 3 2 ack 40 ------- 2 4.0 0.0 2 11
r 0.4192 3 2 ack 40 ------- 2 4.0 0.0 1 10
+ 0.4192 2 0 ack 40 ------- 2 4.0 0.0 1 10
- 0.4192 2 0 ack 40 ------- 2 4.0 0.0 1 10
v 0.41999999999999998 eval {set sim_annotation {Increase window size to 4}}
r 0.428 1 2 cbr 500 ------- 3 1.0 5.0 6 12
+ 0.428 2 3 cbr 500 ------- 3 1.0 5.0 6 12
- 0.428 2 3 cbr 500 ------- 3 1.0 5.0 6 12
r 0.434 3 5 cbr 500 ------- 3 1.0 5.0 5 9
r 0.4352 3 2 ack 40 ------- 2 4.0 0.0 2 11
+ 0.4352 2 0 ack 40 ------- 2 4.0 0.0 2 11
- 0.4352 2 0 ack 40 ------- 2 4.0 0.0 2 11
r 0.43984 2 0 ack 40 ------- 2 4.0 0.0 1 10
+ 0.43984 0 2 tcp 1000 ------- 2 0.0 4.0 3 13
- 0.43984 0 2 tcp 1000 ------- 2 0.0 4.0 3 13
+ 0.43984 0 2 tcp 1000 ------- 2 0.0 4.0 4 14
+ 0.45 1 2 cbr 500 ------- 3 1.0 5.0 7 15
- 0.45 1 2 cbr 500 ------- 3 1.0 5.0 7 15
r 0.45584 2 0 ack 40 ------- 2 4.0 0.0 2 11
+ 0.45584 0 2 tcp 1000 ------- 2 0.0 4.0 5 16
+ 0.45584 0 2 tcp 1000 ------- 2 0.0 4.0 6 17
- 0.45584 0 2 tcp 1000 ------- 2 0.0 4.0 4 14
r 0.456 2 3 cbr 500 ------- 3 1.0 5.0 6 12
+ 0.456 3 5 cbr 500 ------- 3 1.0 5.0 6 12
- 0.456 3 5 cbr 500 ------- 3 1.0 5.0 6 12
- 0.47184 0 2 tcp 1000 ------- 2 0.0 4.0 5 16
r 0.47584 0 2 tcp 1000 ------- 2 0.0 4.0 3 13
+ 0.47584 2 3 tcp 1000 ------- 2 0.0 4.0 3 13
- 0.47584 2 3 tcp 1000 ------- 2 0.0 4.0 3 13
r 0.478 1 2 cbr 500 ------- 3 1.0 5.0 7 15
+ 0.478 2 3 cbr 500 ------- 3 1.0 5.0 7 15
r 0.484 3 5 cbr 500 ------- 3 1.0 5.0 6 12
- 0.48784 0 2 tcp 1000 ------- 2 0.0 4.0 6 17
r 0.49184 0 2 tcp 1000 ------- 2 0.0 4.0 4 14
+ 0.49184 2 3 tcp 1000 ------- 2 0.0 4.0 4 14
- 0.49184 2 3 cbr 500 ------- 3 1.0 5.0 7 15
- 0.49984 2 3 tcp 1000 ------- 2 0.0 4.0 4 14
+ 0.5 1 2 cbr 500 ------- 3 1.0 5.0 8 18
- 0.5 1 2 cbr 500 ------- 3 1.0 5.0 8 18
r 0.50784 0 2 tcp 1000 ------- 2 0.0 4.0 5 16
+ 0.50784 2 3 tcp 1000 ------- 2 0.0 4.0 5 16
r 0.51184 2 3 tcp 1000 ------- 2 0.0 4.0 3 13
+ 0.51184 3 4 tcp 1000 ------- 2 0.0 4.0 3 13
- 0.51184 3 4 tcp 1000 ------- 2 0.0 4.0 3 13
- 0.51584 2 3 tcp 1000 ------- 2 0.0 4.0 5 16
r 0.51984 2 3 cbr 500 ------- 3 1.0 5.0 7 15
+ 0.51984 3 5 cbr 500 ------- 3 1.0 5.0 7 15
- 0.51984 3 5 cbr 500 ------- 3 1.0 5.0 7 15
r 0.52384 0 2 tcp 1000 ------- 2 0.0 4.0 6 17
+ 0.52384 2 3 tcp 1000 ------- 2 0.0 4.0 6 17
r 0.528 1 2 cbr 500 ------- 3 1.0 5.0 8 18
+ 0.528 2 3 cbr 500 ------- 3 1.0 5.0 8 18
- 0.53184 2 3 tcp 1000 ------- 2 0.0 4.0 6 17
r 0.53584 2 3 tcp 1000 ------- 2 0.0 4.0 4 14
+ 0.53584 3 4 tcp 1000 ------- 2 0.0 4.0 4 14
- 0.53584 3 4 tcp 1000 ------- 2 0.0 4.0 4 14
r 0.54784 3 4 tcp 1000 ------- 2 0.0 4.0 3 13
+ 0.54784 4 3 ack 40 ------- 2 4.0 0.0 3 19
- 0.54784 4 3 ack 40 ------- 2 4.0 0.0 3 19
r 0.54784 3 5 cbr 500 ------- 3 1.0 5.0 7 15
- 0.54784 2 3 cbr 500 ------- 3 1.0 5.0 8 18
+ 0.55 1 2 cbr 500 ------- 3 1.0 5.0 9 20
- 0.55 1 2 cbr 500 ------- 3 1.0 5.0 9 20
v 0.55000000000000004 eval {set sim_annotation {4 acks are coming}}
r 0.55184 2 3 tcp 1000 ------- 2 0.0 4.0 5 16
+ 0.55184 3 4 tcp 1000 ------- 2 0.0 4.0 5 16
- 0.55184 3 4 tcp 1000 ------- 2 0.0 4.0 5 16
r 0.56784 2 3 tcp 1000 ------- 2 0.0 4.0 6 17
+ 0.56784 3 4 tcp 1000 ------- 2 0.0 4.0 6 17
- 0.56784 3 4 tcp 1000 ------- 2 0.0 4.0 6 17
r 0.56848 4 3 ack 40 ------- 2 4.0 0.0 3 19
+ 0.56848 3 2 ack 40 ------- 2 4.0 0.0 3 19
- 0.56848 3 2 ack 40 ------- 2 4.0 0.0 3 19
r 0.57184 3 4 tcp 1000 ------- 2 0.0 4.0 4 14
+ 0.57184 4 3 ack 40 ------- 2 4.0 0.0 4 21
- 0.57184 4 3 ack 40 ------- 2 4.0 0.0 4 21
r 0.57584 2 3 cbr 500 ------- 3 1.0 5.0 8 18
+ 0.57584 3 5 cbr 500 ------- 3 1.0 5.0 8 18
- 0.57584 3 5 cbr 500 ------- 3 1.0 5.0 8 18
r 0.578 1 2 cbr 500 ------- 3 1.0 5.0 9 20
+ 0.578 2 3 cbr 500 ------- 3 1.0 5.0 9 20
- 0.578 2 3 cbr 500 ------- 3 1.0 5.0 9 20
r 0.58784 3 4 tcp 1000 ------- 2 0.0 4.0 5 16
+ 0.58784 4 3 ack 40 ------- 2 4.0 0.0 5 22
- 0.58784 4 3 ack 40 ------- 2 4.0 0.0 5 22
r 0.58912 3 2 ack 40 ------- 2 4.0 0.0 3 19
+ 0.58912 2 0 ack 40 ------- 2 4.0 0.0 3 19
- 0.58912 2 0 ack 40 ------- 2 4.0 0.0 3 19
v 0.58999999999999997 eval {set sim_annotation {Increase window size to 8}}
r 0.59248 4 3 ack 40 ------- 2 4.0 0.0 4 21
+ 0.59248 3 2 ack 40 ------- 2 4.0 0.0 4 21
- 0.59248 3 2 ack 40 ------- 2 4.0 0.0 4 21
+ 0.6 1 2 cbr 500 ------- 3 1.0 5.0 10 23
- 0.6 1 2 cbr 500 ------- 3 1.0 5.0 10 23
r 0.60384 3 4 tcp 1000 ------- 2 0.0 4.0 6 17
+ 0.60384 4 3 ack 40 ------- 2 4.0 0.0 6 24
- 0.60384 4 3 ack 40 ------- 2 4.0 0.0 6 24
r 0.60384 3 5 cbr 500 ------- 3 1.0 5.0 8 18
r 0.606 2 3 cbr 500 ------- 3 1.0 5.0 9 20
+ 0.606 3 5 cbr 500 ------- 3 1.0 5.0 9 20
- 0.606 3 5 cbr 500 ------- 3 1.0 5.0 9 20
r 0.60848 4 3 ack 40 ------- 2 4.0 0.0 5 22
+ 0.60848 3 2 ack 40 ------- 2 4.0 0.0 5 22
- 0.60848 3 2 ack 40 ------- 2 4.0 0.0 5 22
r 0.60976 2 0 ack 40 ------- 2 4.0 0.0 3 19
+ 0.60976 0 2 tcp 1000 ------- 2 0.0 4.0 7 25
- 0.60976 0 2 tcp 1000 ------- 2 0.0 4.0 7 25
+ 0.60976 0 2 tcp 1000 ------- 2 0.0 4.0 8 26
r 0.61312 3 2 ack 40 ------- 2 4.0 0.0 4 21
+ 0.61312 2 0 ack 40 ------- 2 4.0 0.0 4 21
- 0.61312 2 0 ack 40 ------- 2 4.0 0.0 4 21
r 0.62448 4 3 ack 40 ------- 2 4.0 0.0 6 24
+ 0.62448 3 2 ack 40 ------- 2 4.0 0.0 6 24
- 0.62448 3 2 ack 40 ------- 2 4.0 0.0 6 24
- 0.62576 0 2 tcp 1000 ------- 2 0.0 4.0 8 26
r 0.628 1 2 cbr 500 ------- 3 1.0 5.0 10 23
+ 0.628 2 3 cbr 500 ------- 3 1.0 5.0 10 23
- 0.628 2 3 cbr 500 ------- 3 1.0 5.0 10 23
r 0.62912 3 2 ack 40 ------- 2 4.0 0.0 5 22
+ 0.62912 2 0 ack 40 ------- 2 4.0 0.0 5 22
- 0.62912 2 0 ack 40 ------- 2 4.0 0.0 5 22
r 0.63376 2 0 ack 40 ------- 2 4.0 0.0 4 21
+ 0.63376 0 2 tcp 1000 ------- 2 0.0 4.0 9 27
+ 0.63376 0 2 tcp 1000 ------- 2 0.0 4.0 10 28
r 0.634 3 5 cbr 500 ------- 3 1.0 5.0 9 20
- 0.64176 0 2 tcp 1000 ------- 2 0.0 4.0 9 27
r 0.64512 3 2 ack 40 ------- 2 4.0 0.0 6 24
+ 0.64512 2 0 ack 40 ------- 2 4.0 0.0 6 24
- 0.64512 2 0 ack 40 ------- 2 4.0 0.0 6 24
r 0.64576 0 2 tcp 1000 ------- 2 0.0 4.0 7 25
+ 0.64576 2 3 tcp 1000 ------- 2 0.0 4.0 7 25
- 0.64576 2 3 tcp 1000 ------- 2 0.0 4.0 7 25
r 0.64976 2 0 ack 40 ------- 2 4.0 0.0 5 22
+ 0.64976 0 2 tcp 1000 ------- 2 0.0 4.0 11 29
+ 0.64976 0 2 tcp 1000 ------- 2 0.0 4.0 12 30
+ 0.65 1 2 cbr 500 ------- 3 1.0 5.0 11 31
- 0.65 1 2 cbr 500 ------- 3 1.0 5.0 11 31
r 0.656 2 3 cbr 500 ------- 3 1.0 5.0 10 23
+ 0.656 3 5 cbr 500 ------- 3 1.0 5.0 10 23
- 0.656 3 5 cbr 500 ------- 3 1.0 5.0 10 23
- 0.65776 0 2 tcp 1000 ------- 2 0.0 4.0 10 28
r 0.66176 0 2 tcp 1000 ------- 2 0.0 4.0 8 26
+ 0.66176 2 3 tcp 1000 ------- 2 0.0 4.0 8 26
- 0.66176 2 3 tcp 1000 ------- 2 0.0 4.0 8 26
r 0.66576 2 0 ack 40 ------- 2 4.0 0.0 6 24
+ 0.66576 0 2 tcp 1000 ------- 2 0.0 4.0 13 32
+ 0.66576 0 2 tcp 1000 ------- 2 0.0 4.0 14 33
- 0.67376 0 2 tcp 1000 ------- 2 0.0 4.0 11 29
r 0.67776 0 2 tcp 1000 ------- 2 0.0 4.0 9 27
+ 0.67776 2 3 tcp 1000 ------- 2 0.0 4.0 9 27
- 0.67776 2 3 tcp 1000 ------- 2 0.0 4.0 9 27
r 0.678 1 2 cbr 500 ------- 3 1.0 5.0 11 31
+ 0.678 2 3 cbr 500 ------- 3 1.0 5.0 11 31
r 0.68176 2 3 tcp 1000 ------- 2 0.0 4.0 7 25
+ 0.68176 3 4 tcp 1000 ------- 2 0.0 4.0 7 25
- 0.68176 3 4 tcp 1000 ------- 2 0.0 4.0 7 25
r 0.684 3 5 cbr 500 ------- 3 1.0 5.0 10 23
- 0.68976 0 2 tcp 1000 ------- 2 0.0 4.0 12 30
r 0.69376 0 2 tcp 1000 ------- 2 0.0 4.0 10 28
+ 0.69376 2 3 tcp 1000 ------- 2 0.0 4.0 10 28
- 0.69376 2 3 cbr 500 ------- 3 1.0 5.0 11 31
r 0.69776 2 3 tcp 1000 ------- 2 0.0 4.0 8 26
+ 0.69776 3 4 tcp 1000 ------- 2 0.0 4.0 8 26
- 0.69776 3 4 tcp 1000 ------- 2 0.0 4.0 8 26
+ 0.7 1 2 cbr 500 ------- 3 1.0 5.0 12 34
- 0.7 1 2 cbr 500 ------- 3 1.0 5.0 12 34
- 0.70176 2 3 tcp 1000 ------- 2 0.0 4.0 10 28
- 0.70576 0 2 tcp 1000 ------- 2 0.0 4.0 13 32
r 0.70976 0 2 tcp 1000 ------- 2 0.0 4.0 11 29
+ 0.70976 2 3 tcp 1000 ------- 2 0.0 4.0 11 29
r 0.71376 2 3 tcp 1000 ------- 2 0.0 4.0 9 27
+ 0.71376 3 4 tcp 1000 ------- 2 0.0 4.0 9 27
- 0.71376 3 4 tcp 1000 ------- 2 0.0 4.0 9 27
r 0.71776 3 4 tcp 1000 ------- 2 0.0 4.0 7 25
+ 0.71776 4 3 ack 40 ------- 2 4.0 0.0 7 35
- 0.71776 4 3 ack 40 ------- 2 4.0 0.0 7 35
- 0.71776 2 3 tcp 1000 ------- 2 0.0 4.0 11 29
r 0.72176 2 3 cbr 500 ------- 3 1.0 5.0 11 31
+ 0.72176 3 5 cbr 500 ------- 3 1.0 5.0 11 31
- 0.72176 3 5 cbr 500 ------- 3 1.0 5.0 11 31
- 0.72176 0 2 tcp 1000 ------- 2 0.0 4.0 14 33
r 0.72576 0 2 tcp 1000 ------- 2 0.0 4.0 12 30
+ 0.72576 2 3 tcp 1000 ------- 2 0.0 4.0 12 30
r 0.728 1 2 cbr 500 ------- 3 1.0 5.0 12 34
+ 0.728 2 3 cbr 500 ------- 3 1.0 5.0 12 34
r 0.73376 3 4 tcp 1000 ------- 2 0.0 4.0 8 26
+ 0.73376 4 3 ack 40 ------- 2 4.0 0.0 8 36
- 0.73376 4 3 ack 40 ------- 2 4.0 0.0 8 36
- 0.73376 2 3 tcp 1000 ------- 2 0.0 4.0 12 30
r 0.73776 2 3 tcp 1000 ------- 2 0.0 4.0 10 28
+ 0.73776 3 4 tcp 1000 ------- 2 0.0 4.0 10 28
- 0.73776 3 4 tcp 1000 ------- 2 0.0 4.0 10 28
r 0.7384 4 3 ack 40 ------- 2 4.0 0.0 7 35
+ 0.7384 3 2 ack 40 ------- 2 4.0 0.0 7 35
- 0.7384 3 2 ack 40 ------- 2 4.0 0.0 7 35
r 0.74176 0 2 tcp 1000 ------- 2 0.0 4.0 13 32
+ 0.74176 2 3 tcp 1000 ------- 2 0.0 4.0 13 32
r 0.74976 3 4 tcp 1000 ------- 2 0.0 4.0 9 27
+ 0.74976 4 3 ack 40 ------- 2 4.0 0.0 9 37
- 0.74976 4 3 ack 40 ------- 2 4.0 0.0 9 37
r 0.74976 3 5 cbr 500 ------- 3 1.0 5.0 11 31
- 0.74976 2 3 cbr 500 ------- 3 1.0 5.0 12 34
v 0.75 eval {set sim_annotation {8 acks are coming}}
+ 0.75 1 2 cbr 500 ------- 3 1.0 5.0 13 38
- 0.75 1 2 cbr 500 ------- 3 1.0 5.0 13 38
r 0.75376 2 3 tcp 1000 ------- 2 0.0 4.0 11 29
+ 0.75376 3 4 tcp 1000 ------- 2 0.0 4.0 11 29
- 0.75376 3 4 tcp 1000 ------- 2 0.0 4.0 11 29
r 0.7544 4 3 ack 40 ------- 2 4.0 0.0 8 36
+ 0.7544 3 2 ack 40 ------- 2 4.0 0.0 8 36
- 0.7544 3 2 ack 40 ------- 2 4.0 0.0 8 36
r 0.75776 0 2 tcp 1000 ------- 2 0.0 4.0 14 33
+ 0.75776 2 3 tcp 1000 ------- 2 0.0 4.0 14 33
- 0.75776 2 3 tcp 1000 ------- 2 0.0 4.0 13 32
r 0.75904 3 2 ack 40 ------- 2 4.0 0.0 7 35
+ 0.75904 2 0 ack 40 ------- 2 4.0 0.0 7 35
- 0.75904 2 0 ack 40 ------- 2 4.0 0.0 7 35
r 0.76976 2 3 tcp 1000 ------- 2 0.0 4.0 12 30
+ 0.76976 3 4 tcp 1000 ------- 2 0.0 4.0 12 30
- 0.76976 3 4 tcp 1000 ------- 2 0.0 4.0 12 30
v 0.77000000000000002 eval {set sim_annotation {Keep maximum cwnd size, 8}}
r 0.7704 4 3 ack 40 ------- 2 4.0 0.0 9 37
+ 0.7704 3 2 ack 40 ------- 2 4.0 0.0 9 37
- 0.7704 3 2 ack 40 ------- 2 4.0 0.0 9 37
r 0.77376 3 4 tcp 1000 ------- 2 0.0 4.0 10 28
+ 0.77376 4 3 ack 40 ------- 2 4.0 0.0 10 39
- 0.77376 4 3 ack 40 ------- 2 4.0 0.0 10 39
- 0.77376 2 3 tcp 1000 ------- 2 0.0 4.0 14 33
r 0.77504 3 2 ack 40 ------- 2 4.0 0.0 8 36
+ 0.77504 2 0 ack 40 ------- 2 4.0 0.0 8 36
- 0.77504 2 0 ack 40 ------- 2 4.0 0.0 8 36
r 0.77776 2 3 cbr 500 ------- 3 1.0 5.0 12 34
+ 0.77776 3 5 cbr 500 ------- 3 1.0 5.0 12 34
- 0.77776 3 5 cbr 500 ------- 3 1.0 5.0 12 34
r 0.778 1 2 cbr 500 ------- 3 1.0 5.0 13 38
+ 0.778 2 3 cbr 500 ------- 3 1.0 5.0 13 38
r 0.77968 2 0 ack 40 ------- 2 4.0 0.0 7 35
+ 0.77968 0 2 tcp 1000 ------- 2 0.0 4.0 15 40
- 0.77968 0 2 tcp 1000 ------- 2 0.0 4.0 15 40
r 0.78976 3 4 tcp 1000 ------- 2 0.0 4.0 11 29
+ 0.78976 4 3 ack 40 ------- 2 4.0 0.0 11 41
- 0.78976 4 3 ack 40 ------- 2 4.0 0.0 11 41
- 0.78976 2 3 cbr 500 ------- 3 1.0 5.0 13 38
r 0.79104 3 2 ack 40 ------- 2 4.0 0.0 9 37
+ 0.79104 2 0 ack 40 ------- 2 4.0 0.0 9 37
- 0.79104 2 0 ack 40 ------- 2 4.0 0.0 9 37
r 0.79376 2 3 tcp 1000 ------- 2 0.0 4.0 13 32
+ 0.79376 3 4 tcp 1000 ------- 2 0.0 4.0 13 32
- 0.79376 3 4 tcp 1000 ------- 2 0.0 4.0 13 32
r 0.7944 4 3 ack 40 ------- 2 4.0 0.0 10 39
+ 0.7944 3 2 ack 40 ------- 2 4.0 0.0 10 39
- 0.7944 3 2 ack 40 ------- 2 4.0 0.0 10 39
r 0.79568 2 0 ack 40 ------- 2 4.0 0.0 8 36
+ 0.79568 0 2 tcp 1000 ------- 2 0.0 4.0 16 42
- 0.79568 0 2 tcp 1000 ------- 2 0.0 4.0 16 42
+ 0.8 1 2 cbr 500 ------- 3 1.0 5.0 14 43
- 0.8 1 2 cbr 500 ------- 3 1.0 5.0 14 43
r 0.80576 3 4 tcp 1000 ------- 2 0.0 4.0 12 30
+ 0.80576 4 3 ack 40 ------- 2 4.0 0.0 12 44
- 0.80576 4 3 ack 40 ------- 2 4.0 0.0 12 44
r 0.80576 3 5 cbr 500 ------- 3 1.0 5.0 12 34
r 0.80976 2 3 tcp 1000 ------- 2 0.0 4.0 14 33
+ 0.80976 3 4 tcp 1000 ------- 2 0.0 4.0 14 33
- 0.80976 3 4 tcp 1000 ------- 2 0.0 4.0 14 33
r 0.8104 4 3 ack 40 ------- 2 4.0 0.0 11 41
+ 0.8104 3 2 ack 40 ------- 2 4.0 0.0 11 41
- 0.8104 3 2 ack 40 ------- 2 4.0 0.0 11 41
r 0.81168 2 0 ack 40 ------- 2 4.0 0.0 9 37
+ 0.81168 0 2 tcp 1000 ------- 2 0.0 4.0 17 45
- 0.81168 0 2 tcp 1000 ------- 2 0.0 4.0 17 45
r 0.81504 3 2 ack 40 ------- 2 4.0 0.0 10 39
+ 0.81504 2 0 ack 40 ------- 2 4.0 0.0 10 39
- 0.81504 2 0 ack 40 ------- 2 4.0 0.0 10 39
r 0.81568 0 2 tcp 1000 ------- 2 0.0 4.0 15 40
+ 0.81568 2 3 tcp 1000 ------- 2 0.0 4.0 15 40
- 0.81568 2 3 tcp 1000 ------- 2 0.0 4.0 15 40
r 0.81776 2 3 cbr 500 ------- 3 1.0 5.0 13 38
+ 0.81776 3 5 cbr 500 ------- 3 1.0 5.0 13 38
- 0.81776 3 5 cbr 500 ------- 3 1.0 5.0 13 38
r 0.8264 4 3 ack 40 ------- 2 4.0 0.0 12 44
+ 0.8264 3 2 ack 40 ------- 2 4.0 0.0 12 44
- 0.8264 3 2 ack 40 ------- 2 4.0 0.0 12 44
r 0.828 1 2 cbr 500 ------- 3 1.0 5.0 14 43
+ 0.828 2 3 cbr 500 ------- 3 1.0 5.0 14 43
r 0.82976 3 4 tcp 1000 ------- 2 0.0 4.0 13 32
+ 0.82976 4 3 ack 40 ------- 2 4.0 0.0 13 46
- 0.82976 4 3 ack 40 ------- 2 4.0 0.0 13 46
r 0.83104 3 2 ack 40 ------- 2 4.0 0.0 11 41
+ 0.83104 2 0 ack 40 ------- 2 4.0 0.0 11 41
- 0.83104 2 0 ack 40 ------- 2 4.0 0.0 11 41
r 0.83168 0 2 tcp 1000 ------- 2 0.0 4.0 16 42
+ 0.83168 2 3 tcp 1000 ------- 2 0.0 4.0 16 42
- 0.83168 2 3 cbr 500 ------- 3 1.0 5.0 14 43
r 0.83568 2 0 ack 40 ------- 2 4.0 0.0 10 39
+ 0.83568 0 2 tcp 1000 ------- 2 0.0 4.0 18 47
- 0.83568 0 2 tcp 1000 ------- 2 0.0 4.0 18 47
- 0.83968 2 3 tcp 1000 ------- 2 0.0 4.0 16 42
r 0.84576 3 4 tcp 1000 ------- 2 0.0 4.0 14 33
+ 0.84576 4 3 ack 40 ------- 2 4.0 0.0 14 48
- 0.84576 4 3 ack 40 ------- 2 4.0 0.0 14 48
r 0.84576 3 5 cbr 500 ------- 3 1.0 5.0 13 38
r 0.84704 3 2 ack 40 ------- 2 4.0 0.0 12 44
+ 0.84704 2 0 ack 40 ------- 2 4.0 0.0 12 44
- 0.84704 2 0 ack 40 ------- 2 4.0 0.0 12 44
r 0.84768 0 2 tcp 1000 ------- 2 0.0 4.0 17 45
+ 0.84768 2 3 tcp 1000 ------- 2 0.0 4.0 17 45
+ 0.85 1 2 cbr 500 ------- 3 1.0 5.0 15 49
- 0.85 1 2 cbr 500 ------- 3 1.0 5.0 15 49
r 0.8504 4 3 ack 40 ------- 2 4.0 0.0 13 46
+ 0.8504 3 2 ack 40 ------- 2 4.0 0.0 13 46
- 0.8504 3 2 ack 40 ------- 2 4.0 0.0 13 46
r 0.85168 2 3 tcp 1000 ------- 2 0.0 4.0 15 40
+ 0.85168 3 4 tcp 1000 ------- 2 0.0 4.0 15 40
- 0.85168 3 4 tcp 1000 ------- 2 0.0 4.0 15 40
r 0.85168 2 0 ack 40 ------- 2 4.0 0.0 11 41
+ 0.85168 0 2 tcp 1000 ------- 2 0.0 4.0 19 50
- 0.85168 0 2 tcp 1000 ------- 2 0.0 4.0 19 50
- 0.85568 2 3 tcp 1000 ------- 2 0.0 4.0 17 45
r 0.85968 2 3 cbr 500 ------- 3 1.0 5.0 14 43
+ 0.85968 3 5 cbr 500 ------- 3 1.0 5.0 14 43
- 0.85968 3 5 cbr 500 ------- 3 1.0 5.0 14 43
r 0.8664 4 3 ack 40 ------- 2 4.0 0.0 14 48
+ 0.8664 3 2 ack 40 ------- 2 4.0 0.0 14 48
- 0.8664 3 2 ack 40 ------- 2 4.0 0.0 14 48
r 0.86768 2 0 ack 40 ------- 2 4.0 0.0 12 44
+ 0.86768 0 2 tcp 1000 ------- 2 0.0 4.0 20 51
- 0.86768 0 2 tcp 1000 ------- 2 0.0 4.0 20 51
r 0.87104 3 2 ack 40 ------- 2 4.0 0.0 13 46
+ 0.87104 2 0 ack 40 ------- 2 4.0 0.0 13 46
- 0.87104 2 0 ack 40 ------- 2 4.0 0.0 13 46
r 0.87168 0 2 tcp 1000 ------- 2 0.0 4.0 18 47
+ 0.87168 2 3 tcp 1000 ------- 2 0.0 4.0 18 47
- 0.87168 2 3 tcp 1000 ------- 2 0.0 4.0 18 47
r 0.87568 2 3 tcp 1000 ------- 2 0.0 4.0 16 42
+ 0.87568 3 4 tcp 1000 ------- 2 0.0 4.0 16 42
- 0.87568 3 4 tcp 1000 ------- 2 0.0 4.0 16 42
r 0.878 1 2 cbr 500 ------- 3 1.0 5.0 15 49
+ 0.878 2 3 cbr 500 ------- 3 1.0 5.0 15 49
r 0.88704 3 2 ack 40 ------- 2 4.0 0.0 14 48
+ 0.88704 2 0 ack 40 ------- 2 4.0 0.0 14 48
- 0.88704 2 0 ack 40 ------- 2 4.0 0.0 14 48
r 0.88768 3 4 tcp 1000 ------- 2 0.0 4.0 15 40
+ 0.88768 4 3 ack 40 ------- 2 4.0 0.0 15 52
- 0.88768 4 3 ack 40 ------- 2 4.0 0.0 15 52
r 0.88768 0 2 tcp 1000 ------- 2 0.0 4.0 19 50
+ 0.88768 2 3 tcp 1000 ------- 2 0.0 4.0 19 50
r 0.88768 3 5 cbr 500 ------- 3 1.0 5.0 14 43
- 0.88768 2 3 cbr 500 ------- 3 1.0 5.0 15 49
r 0.89168 2 3 tcp 1000 ------- 2 0.0 4.0 17 45
+ 0.89168 3 4 tcp 1000 ------- 2 0.0 4.0 17 45
r 0.89168 2 0 ack 40 ------- 2 4.0 0.0 13 46
+ 0.89168 0 2 tcp 1000 ------- 2 0.0 4.0 21 53
- 0.89168 0 2 tcp 1000 ------- 2 0.0 4.0 21 53
- 0.89168 3 4 tcp 1000 ------- 2 0.0 4.0 17 45
- 0.89568 2 3 tcp 1000 ------- 2 0.0 4.0 19 50
+ 0.9 1 2 cbr 500 ------- 3 1.0 5.0 16 54
- 0.9 1 2 cbr 500 ------- 3 1.0 5.0 16 54
r 0.90368 0 2 tcp 1000 ------- 2 0.0 4.0 20 51
+ 0.90368 2 3 tcp 1000 ------- 2 0.0 4.0 20 51
r 0.90768 2 3 tcp 1000 ------- 2 0.0 4.0 18 47
+ 0.90768 3 4 tcp 1000 ------- 2 0.0 4.0 18 47
r 0.90768 2 0 ack 40 ------- 2 4.0 0.0 14 48
+ 0.90768 0 2 tcp 1000 ------- 2 0.0 4.0 22 55
- 0.90768 0 2 tcp 1000 ------- 2 0.0 4.0 22 55
- 0.90768 3 4 tcp 1000 ------- 2 0.0 4.0 18 47
r 0.90832 4 3 ack 40 ------- 2 4.0 0.0 15 52
+ 0.90832 3 2 ack 40 ------- 2 4.0 0.0 15 52
- 0.90832 3 2 ack 40 ------- 2 4.0 0.0 15 52
r 0.91168 3 4 tcp 1000 ------- 2 0.0 4.0 16 42
+ 0.91168 4 3 ack 40 ------- 2 4.0 0.0 16 56
- 0.91168 4 3 ack 40 ------- 2 4.0 0.0 16 56
- 0.91168 2 3 tcp 1000 ------- 2 0.0 4.0 20 51
r 0.91568 2 3 cbr 500 ------- 3 1.0 5.0 15 49
+ 0.91568 3 5 cbr 500 ------- 3 1.0 5.0 15 49
- 0.91568 3 5 cbr 500 ------- 3 1.0 5.0 15 49
r 0.92768 0 2 tcp 1000 ------- 2 0.0 4.0 21 53
+ 0.92768 2 3 tcp 1000 ------- 2 0.0 4.0 21 53
r 0.92768 3 4 tcp 1000 ------- 2 0.0 4.0 17 45
+ 0.92768 4 3 ack 40 ------- 2 4.0 0.0 17 57
- 0.92768 4 3 ack 40 ------- 2 4.0 0.0 17 57
- 0.92768 2 3 tcp 1000 ------- 2 0.0 4.0 21 53
r 0.928 1 2 cbr 500 ------- 3 1.0 5.0 16 54
+ 0.928 2 3 cbr 500 ------- 3 1.0 5.0 16 54
r 0.92896 3 2 ack 40 ------- 2 4.0 0.0 15 52
+ 0.92896 2 0 ack 40 ------- 2 4.0 0.0 15 52
- 0.92896 2 0 ack 40 ------- 2 4.0 0.0 15 52
r 0.93168 2 3 tcp 1000 ------- 2 0.0 4.0 19 50
+ 0.93168 3 4 tcp 1000 ------- 2 0.0 4.0 19 50
- 0.93168 3 4 tcp 1000 ------- 2 0.0 4.0 19 50
r 0.93232 4 3 ack 40 ------- 2 4.0 0.0 16 56
+ 0.93232 3 2 ack 40 ------- 2 4.0 0.0 16 56
- 0.93232 3 2 ack 40 ------- 2 4.0 0.0 16 56
r 0.94368 0 2 tcp 1000 ------- 2 0.0 4.0 22 55
+ 0.94368 2 3 tcp 1000 ------- 2 0.0 4.0 22 55
r 0.94368 3 4 tcp 1000 ------- 2 0.0 4.0 18 47
+ 0.94368 4 3 ack 40 ------- 2 4.0 0.0 18 58
- 0.94368 4 3 ack 40 ------- 2 4.0 0.0 18 58
r 0.94368 3 5 cbr 500 ------- 3 1.0 5.0 15 49
- 0.94368 2 3 cbr 500 ------- 3 1.0 5.0 16 54
r 0.94768 2 3 tcp 1000 ------- 2 0.0 4.0 20 51
+ 0.94768 3 4 tcp 1000 ------- 2 0.0 4.0 20 51
- 0.94768 3 4 tcp 1000 ------- 2 0.0 4.0 20 51
r 0.94832 4 3 ack 40 ------- 2 4.0 0.0 17 57
+ 0.94832 3 2 ack 40 ------- 2 4.0 0.0 17 57
- 0.94832 3 2 ack 40 ------- 2 4.0 0.0 17 57
r 0.9496 2 0 ack 40 ------- 2 4.0 0.0 15 52
+ 0.9496 0 2 tcp 1000 ------- 2 0.0 4.0 23 59
- 0.9496 0 2 tcp 1000 ------- 2 0.0 4.0 23 59
+ 0.95 1 2 cbr 500 ------- 3 1.0 5.0 17 60
- 0.95 1 2 cbr 500 ------- 3 1.0 5.0 17 60
- 0.95168 2 3 tcp 1000 ------- 2 0.0 4.0 22 55
r 0.95296 3 2 ack 40 ------- 2 4.0 0.0 16 56
+ 0.95296 2 0 ack 40 ------- 2 4.0 0.0 16 56
- 0.95296 2 0 ack 40 ------- 2 4.0 0.0 16 56
r 0.96368 2 3 tcp 1000 ------- 2 0.0 4.0 21 53
+ 0.96368 3 4 tcp 1000 ------- 2 0.0 4.0 21 53
- 0.96368 3 4 tcp 1000 ------- 2 0.0 4.0 21 53
r 0.96432 4 3 ack 40 ------- 2 4.0 0.0 18 58
+ 0.96432 3 2 ack 40 ------- 2 4.0 0.0 18 58
- 0.96432 3 2 ack 40 ------- 2 4.0 0.0 18 58
r 0.96768 3 4 tcp 1000 ------- 2 0.0 4.0 19 50
+ 0.96768 4 3 ack 40 ------- 2 4.0 0.0 19 61
- 0.96768 4 3 ack 40 ------- 2 4.0 0.0 19 61
r 0.96896 3 2 ack 40 ------- 2 4.0 0.0 17 57
+ 0.96896 2 0 ack 40 ------- 2 4.0 0.0 17 57
- 0.96896 2 0 ack 40 ------- 2 4.0 0.0 17 57
r 0.97168 2 3 cbr 500 ------- 3 1.0 5.0 16 54
+ 0.97168 3 5 cbr 500 ------- 3 1.0 5.0 16 54
- 0.97168 3 5 cbr 500 ------- 3 1.0 5.0 16 54
r 0.9736 2 0 ack 40 ------- 2 4.0 0.0 16 56
+ 0.9736 0 2 tcp 1000 ------- 2 0.0 4.0 24 62
- 0.9736 0 2 tcp 1000 ------- 2 0.0 4.0 24 62
r 0.978 1 2 cbr 500 ------- 3 1.0 5.0 17 60
+ 0.978 2 3 cbr 500 ------- 3 1.0 5.0 17 60
- 0.978 2 3 cbr 500 ------- 3 1.0 5.0 17 60
r 0.98368 3 4 tcp 1000 ------- 2 0.0 4.0 20 51
+ 0.98368 4 3 ack 40 ------- 2 4.0 0.0 20 63
- 0.98368 4 3 ack 40 ------- 2 4.0 0.0 20 63
r 0.98496 3 2 ack 40 ------- 2 4.0 0.0 18 58
+ 0.98496 2 0 ack 40 ------- 2 4.0 0.0 18 58
- 0.98496 2 0 ack 40 ------- 2 4.0 0.0 18 58
r 0.9856 0 2 tcp 1000 ------- 2 0.0 4.0 23 59
+ 0.9856 2 3 tcp 1000 ------- 2 0.0 4.0 23 59
- 0.986 2 3 tcp 1000 ------- 2 0.0 4.0 23 59
r 0.98768 2 3 tcp 1000 ------- 2 0.0 4.0 22 55
+ 0.98768 3 4 tcp 1000 ------- 2 0.0 4.0 22 55
- 0.98768 3 4 tcp 1000 ------- 2 0.0 4.0 22 55
r 0.98832 4 3 ack 40 ------- 2 4.0 0.0 19 61
+ 0.98832 3 2 ack 40 ------- 2 4.0 0.0 19 61
- 0.98832 3 2 ack 40 ------- 2 4.0 0.0 19 61
r 0.9896 2 0 ack 40 ------- 2 4.0 0.0 17 57
+ 0.9896 0 2 tcp 1000 ------- 2 0.0 4.0 25 64
- 0.9896 0 2 tcp 1000 ------- 2 0.0 4.0 25 64
r 0.99968 3 4 tcp 1000 ------- 2 0.0 4.0 21 53
+ 0.99968 4 3 ack 40 ------- 2 4.0 0.0 21 65
- 0.99968 4 3 ack 40 ------- 2 4.0 0.0 21 65
r 0.99968 3 5 cbr 500 ------- 3 1.0 5.0 16 54
+ 1 1 2 cbr 500 ------- 3 1.0 5.0 18 66
- 1 1 2 cbr 500 ------- 3 1.0 5.0 18 66
r 1.00432 4 3 ack 40 ------- 2 4.0 0.0 20 63
+ 1.00432 3 2 ack 40 ------- 2 4.0 0.0 20 63
- 1.00432 3 2 ack 40 ------- 2 4.0 0.0 20 63
r 1.0056 2 0 ack 40 ------- 2 4.0 0.0 18 58
+ 1.0056 0 2 tcp 1000 ------- 2 0.0 4.0 26 67
- 1.0056 0 2 tcp 1000 ------- 2 0.0 4.0 26 67
r 1.006 2 3 cbr 500 ------- 3 1.0 5.0 17 60
+ 1.006 3 5 cbr 500 ------- 3 1.0 5.0 17 60
- 1.006 3 5 cbr 500 ------- 3 1.0 5.0 17 60
r 1.00896 3 2 ack 40 ------- 2 4.0 0.0 19 61
+ 1.00896 2 0 ack 40 ------- 2 4.0 0.0 19 61
- 1.00896 2 0 ack 40 ------- 2 4.0 0.0 19 61
r 1.0096 0 2 tcp 1000 ------- 2 0.0 4.0 24 62
+ 1.0096 2 3 tcp 1000 ------- 2 0.0 4.0 24 62
- 1.0096 2 3 tcp 1000 ------- 2 0.0 4.0 24 62
r 1.02032 4 3 ack 40 ------- 2 4.0 0.0 21 65
+ 1.02032 3 2 ack 40 ------- 2 4.0 0.0 21 65
- 1.02032 3 2 ack 40 ------- 2 4.0 0.0 21 65
r 1.022 2 3 tcp 1000 ------- 2 0.0 4.0 23 59
+ 1.022 3 4 tcp 1000 ------- 2 0.0 4.0 23 59
- 1.022 3 4 tcp 1000 ------- 2 0.0 4.0 23 59
r 1.02368 3 4 tcp 1000 ------- 2 0.0 4.0 22 55
+ 1.02368 4 3 ack 40 ------- 2 4.0 0.0 22 68
- 1.02368 4 3 ack 40 ------- 2 4.0 0.0 22 68
r 1.02496 3 2 ack 40 ------- 2 4.0 0.0 20 63
+ 1.02496 2 0 ack 40 ------- 2 4.0 0.0 20 63
- 1.02496 2 0 ack 40 ------- 2 4.0 0.0 20 63
r 1.0256 0 2 tcp 1000 ------- 2 0.0 4.0 25 64
+ 1.0256 2 3 tcp 1000 ------- 2 0.0 4.0 25 64
- 1.0256 2 3 tcp 1000 ------- 2 0.0 4.0 25 64
r 1.028 1 2 cbr 500 ------- 3 1.0 5.0 18 66
+ 1.028 2 3 cbr 500 ------- 3 1.0 5.0 18 66
r 1.0296 2 0 ack 40 ------- 2 4.0 0.0 19 61
+ 1.0296 0 2 tcp 1000 ------- 2 0.0 4.0 27 69
- 1.0296 0 2 tcp 1000 ------- 2 0.0 4.0 27 69
r 1.034 3 5 cbr 500 ------- 3 1.0 5.0 17 60
r 1.04096 3 2 ack 40 ------- 2 4.0 0.0 21 65
+ 1.04096 2 0 ack 40 ------- 2 4.0 0.0 21 65
- 1.04096 2 0 ack 40 ------- 2 4.0 0.0 21 65
r 1.0416 0 2 tcp 1000 ------- 2 0.0 4.0 26 67
+ 1.0416 2 3 tcp 1000 ------- 2 0.0 4.0 26 67
- 1.0416 2 3 cbr 500 ------- 3 1.0 5.0 18 66
r 1.04432 4 3 ack 40 ------- 2 4.0 0.0 22 68
+ 1.04432 3 2 ack 40 ------- 2 4.0 0.0 22 68
- 1.04432 3 2 ack 40 ------- 2 4.0 0.0 22 68
r 1.0456 2 3 tcp 1000 ------- 2 0.0 4.0 24 62
+ 1.0456 3 4 tcp 1000 ------- 2 0.0 4.0 24 62
- 1.0456 3 4 tcp 1000 ------- 2 0.0 4.0 24 62
r 1.0456 2 0 ack 40 ------- 2 4.0 0.0 20 63
+ 1.0456 0 2 tcp 1000 ------- 2 0.0 4.0 28 70
- 1.0456 0 2 tcp 1000 ------- 2 0.0 4.0 28 70
- 1.0496 2 3 tcp 1000 ------- 2 0.0 4.0 26 67
+ 1.05 1 2 cbr 500 ------- 3 1.0 5.0 19 71
- 1.05 1 2 cbr 500 ------- 3 1.0 5.0 19 71
r 1.058 3 4 tcp 1000 ------- 2 0.0 4.0 23 59
+ 1.058 4 3 ack 40 ------- 2 4.0 0.0 23 72
- 1.058 4 3 ack 40 ------- 2 4.0 0.0 23 72
r 1.0616 2 3 tcp 1000 ------- 2 0.0 4.0 25 64
+ 1.0616 3 4 tcp 1000 ------- 2 0.0 4.0 25 64
r 1.0616 2 0 ack 40 ------- 2 4.0 0.0 21 65
+ 1.0616 0 2 tcp 1000 ------- 2 0.0 4.0 29 73
- 1.0616 3 4 tcp 1000 ------- 2 0.0 4.0 25 64
- 1.0616 0 2 tcp 1000 ------- 2 0.0 4.0 29 73
r 1.06496 3 2 ack 40 ------- 2 4.0 0.0 22 68
+ 1.06496 2 0 ack 40 ------- 2 4.0 0.0 22 68
- 1.06496 2 0 ack 40 ------- 2 4.0 0.0 22 68
r 1.0656 0 2 tcp 1000 ------- 2 0.0 4.0 27 69
+ 1.0656 2 3 tcp 1000 ------- 2 0.0 4.0 27 69
- 1.0656 2 3 tcp 1000 ------- 2 0.0 4.0 27 69
r 1.0696 2 3 cbr 500 ------- 3 1.0 5.0 18 66
+ 1.0696 3 5 cbr 500 ------- 3 1.0 5.0 18 66
- 1.0696 3 5 cbr 500 ------- 3 1.0 5.0 18 66
r 1.078 1 2 cbr 500 ------- 3 1.0 5.0 19 71
+ 1.078 2 3 cbr 500 ------- 3 1.0 5.0 19 71
r 1.07864 4 3 ack 40 ------- 2 4.0 0.0 23 72
+ 1.07864 3 2 ack 40 ------- 2 4.0 0.0 23 72
- 1.07864 3 2 ack 40 ------- 2 4.0 0.0 23 72
r 1.0816 3 4 tcp 1000 ------- 2 0.0 4.0 24 62
+ 1.0816 4 3 ack 40 ------- 2 4.0 0.0 24 74
- 1.0816 4 3 ack 40 ------- 2 4.0 0.0 24 74
r 1.0816 0 2 tcp 1000 ------- 2 0.0 4.0 28 70
+ 1.0816 2 3 tcp 1000 ------- 2 0.0 4.0 28 70
- 1.0816 2 3 cbr 500 ------- 3 1.0 5.0 19 71
r 1.0856 2 3 tcp 1000 ------- 2 0.0 4.0 26 67
+ 1.0856 3 4 tcp 1000 ------- 2 0.0 4.0 26 67
- 1.0856 3 4 tcp 1000 ------- 2 0.0 4.0 26 67
r 1.0856 2 0 ack 40 ------- 2 4.0 0.0 22 68
+ 1.0856 0 2 tcp 1000 ------- 2 0.0 4.0 30 75
- 1.0856 0 2 tcp 1000 ------- 2 0.0 4.0 30 75
- 1.0896 2 3 tcp 1000 ------- 2 0.0 4.0 28 70
r 1.0976 3 4 tcp 1000 ------- 2 0.0 4.0 25 64
+ 1.0976 4 3 ack 40 ------- 2 4.0 0.0 25 76
- 1.0976 4 3 ack 40 ------- 2 4.0 0.0 25 76
r 1.0976 0 2 tcp 1000 ------- 2 0.0 4.0 29 73
+ 1.0976 2 3 tcp 1000 ------- 2 0.0 4.0 29 73
r 1.0976 3 5 cbr 500 ------- 3 1.0 5.0 18 66
r 1.09928 3 2 ack 40 ------- 2 4.0 0.0 23 72