V -t * -v 1.0a5 -a 1 -c 1 -F 2 -M 3
c -t * -i 0 -n black
c -t * -i 1 -n red
N -t * -S 0 -n {TCP session  between node 0.0 and node 5.0} -p TCP  -m {}
N -t * -S 0 -h 40
N -t * -F 0 -M 0 -n tcp
N -t * -F 1 -M 2 -n tcp_cong
N -t * -F 0 -M 1 -n ack
A -t * -n 1 -p 0 -o 255 -c 15 -a 1
A -t * -h 1 -m 127 -s 8
n -t * -a 4 -s 4 -S UP -v circle -c black
n -t * -a 0 -s 0 -S UP -v circle -c black
n -t * -a 5 -s 5 -S UP -v circle -c black
n -t * -a 1 -s 1 -S UP -v circle -c black
n -t * -a 6 -s 6 -S UP -v circle -c black
n -t * -a 2 -s 2 -S UP -v circle -c black
n -t * -a 7 -s 7 -S UP -v circle -c black
n -t * -a 3 -s 3 -S UP -v circle -c black
l -t * -s 0 -d 3 -S UP -r 5000000 -D 0.02 -c black -o right-down
l -t * -s 1 -d 3 -S UP -r 1000000 -D 0.02 -c black -o right
l -t * -s 2 -d 3 -S UP -r 1000000 -D 0.02 -c black -o right-up
l -t * -s 3 -d 4 -S UP -r 1000000 -D 0.050000000000000003 -c black -o right
l -t * -s 4 -d 5 -S UP -r 5000000 -D 0.02 -c black -o right-up
l -t * -s 4 -d 6 -S UP -r 1000000 -D 0.02 -c black -o right
l -t * -s 4 -d 7 -S UP -r 1000000 -D 0.02 -c black -o right-down
q -t * -s 3 -d 4 -a 0.5
q -t * -s 4 -d 3 -a 0.5
a -t 0.00000000000000000 -s 0 -d 5 -n tcp
f -t 0.00000000000000000 -s 0 -d 5 -n ssthresh_ -a tcp -v 20 -T v
f -t 0.00000000000000000 -s 0 -d 5 -n cwnd_ -a tcp -v 1.000000 -T v
v -t 0.00000000000000000 monitor_agent 0 tcp
n -t 0 -s 0 -S DLABEL -l TCP -L ""
n -t 0 -s 5 -S DLABEL -l TCP -L ""
n -t 0 -s 1 -S DLABEL -l CBR-1 -L ""
n -t 0 -s 2 -S DLABEL -l CBR-2 -L ""
n -t 0 -s 6 -S DLABEL -l CBR-1 -L ""
n -t 0 -s 7 -S DLABEL -l CBR-2 -L ""
v -t 0 sim_annotation 0 1 TCP in a heavely loaded network
+ -t 0.05 -s 1 -d 3 -p cbr -e 500 -c 1 -i 0 -a 1
- -t 0.05 -s 1 -d 3 -p cbr -e 500 -c 1 -i 0 -a 1
h -t 0.05 -s 1 -d 3 -p cbr -e 500 -c 1 -i 0 -a 1
v -t 0.050000000000000003 sim_annotation 0.050000000000000003 2 CBR-1 starts
+ -t 0.06 -s 1 -d 3 -p cbr -e 500 -c 1 -i 1 -a 1
- -t 0.06 -s 1 -d 3 -p cbr -e 500 -c 1 -i 1 -a 1
h -t 0.06 -s 1 -d 3 -p cbr -e 500 -c 1 -i 1 -a 1
+ -t 0.07 -s 1 -d 3 -p cbr -e 500 -c 1 -i 2 -a 1
- -t 0.07 -s 1 -d 3 -p cbr -e 500 -c 1 -i 2 -a 1
h -t 0.07 -s 1 -d 3 -p cbr -e 500 -c 1 -i 2 -a 1
r -t 0.074 -s 1 -d 3 -p cbr -e 500 -c 1 -i 0 -a 1
+ -t 0.074 -s 3 -d 4 -p cbr -e 500 -c 1 -i 0 -a 1
- -t 0.074 -s 3 -d 4 -p cbr -e 500 -c 1 -i 0 -a 1
h -t 0.074 -s 3 -d 4 -p cbr -e 500 -c 1 -i 0 -a 1
+ -t 0.08 -s 1 -d 3 -p cbr -e 500 -c 1 -i 3 -a 1
- -t 0.08 -s 1 -d 3 -p cbr -e 500 -c 1 -i 3 -a 1
h -t 0.08 -s 1 -d 3 -p cbr -e 500 -c 1 -i 3 -a 1
r -t 0.084 -s 1 -d 3 -p cbr -e 500 -c 1 -i 1 -a 1
+ -t 0.084 -s 3 -d 4 -p cbr -e 500 -c 1 -i 1 -a 1
- -t 0.084 -s 3 -d 4 -p cbr -e 500 -c 1 -i 1 -a 1
h -t 0.084 -s 3 -d 4 -p cbr -e 500 -c 1 -i 1 -a 1
+ -t 0.09 -s 1 -d 3 -p cbr -e 500 -c 1 -i 4 -a 1
- -t 0.09 -s 1 -d 3 -p cbr -e 500 -c 1 -i 4 -a 1
h -t 0.09 -s 1 -d 3 -p cbr -e 500 -c 1 -i 4 -a 1
r -t 0.094 -s 1 -d 3 -p cbr -e 500 -c 1 -i 2 -a 1
+ -t 0.094 -s 3 -d 4 -p cbr -e 500 -c 1 -i 2 -a 1
- -t 0.094 -s 3 -d 4 -p cbr -e 500 -c 1 -i 2 -a 1
h -t 0.094 -s 3 -d 4 -p cbr -e 500 -c 1 -i 2 -a 1
+ -t 0.1 -s 1 -d 3 -p cbr -e 500 -c 1 -i 5 -a 1
- -t 0.1 -s 1 -d 3 -p cbr -e 500 -c 1 -i 5 -a 1
h -t 0.1 -s 1 -d 3 -p cbr -e 500 -c 1 -i 5 -a 1
+ -t 0.1 -s 2 -d 3 -p cbr -e 1000 -c 1 -i 6 -a 1
- -t 0.1 -s 2 -d 3 -p cbr -e 1000 -c 1 -i 6 -a 1
h -t 0.1 -s 2 -d 3 -p cbr -e 1000 -c 1 -i 6 -a 1
v -t 0.10000000000000001 sim_annotation 0.10000000000000001 3 CBR-2 starts
r -t 0.104 -s 1 -d 3 -p cbr -e 500 -c 1 -i 3 -a 1
+ -t 0.104 -s 3 -d 4 -p cbr -e 500 -c 1 -i 3 -a 1
- -t 0.104 -s 3 -d 4 -p cbr -e 500 -c 1 -i 3 -a 1
h -t 0.104 -s 3 -d 4 -p cbr -e 500 -c 1 -i 3 -a 1
+ -t 0.11 -s 1 -d 3 -p cbr -e 500 -c 1 -i 7 -a 1
- -t 0.11 -s 1 -d 3 -p cbr -e 500 -c 1 -i 7 -a 1
h -t 0.11 -s 1 -d 3 -p cbr -e 500 -c 1 -i 7 -a 1
+ -t 0.11 -s 2 -d 3 -p cbr -e 1000 -c 1 -i 8 -a 1
- -t 0.11 -s 2 -d 3 -p cbr -e 1000 -c 1 -i 8 -a 1
h -t 0.11 -s 2 -d 3 -p cbr -e 1000 -c 1 -i 8 -a 1
r -t 0.114 -s 1 -d 3 -p cbr -e 500 -c 1 -i 4 -a 1
+ -t 0.114 -s 3 -d 4 -p cbr -e 500 -c 1 -i 4 -a 1
- -t 0.114 -s 3 -d 4 -p cbr -e 500 -c 1 -i 4 -a 1
h -t 0.114 -s 3 -d 4 -p cbr -e 500 -c 1 -i 4 -a 1
+ -t 0.12 -s 1 -d 3 -p cbr -e 500 -c 1 -i 9 -a 1
- -t 0.12 -s 1 -d 3 -p cbr -e 500 -c 1 -i 9 -a 1
h -t 0.12 -s 1 -d 3 -p cbr -e 500 -c 1 -i 9 -a 1
+ -t 0.12 -s 2 -d 3 -p cbr -e 1000 -c 1 -i 10 -a 1
- -t 0.12 -s 2 -d 3 -p cbr -e 1000 -c 1 -i 10 -a 1
h -t 0.12 -s 2 -d 3 -p cbr -e 1000 -c 1 -i 10 -a 1
r -t 0.124 -s 1 -d 3 -p cbr -e 500 -c 1 -i 5 -a 1
+ -t 0.124 -s 3 -d 4 -p cbr -e 500 -c 1 -i 5 -a 1
- -t 0.124 -s 3 -d 4 -p cbr -e 500 -c 1 -i 5 -a 1
h -t 0.124 -s 3 -d 4 -p cbr -e 500 -c 1 -i 5 -a 1
r -t 0.128 -s 3 -d 4 -p cbr -e 500 -c 1 -i 0 -a 1
+ -t 0.128 -s 4 -d 6 -p cbr -e 500 -c 1 -i 0 -a 1
- -t 0.128 -s 4 -d 6 -p cbr -e 500 -c 1 -i 0 -a 1
h -t 0.128 -s 4 -d 6 -p cbr -e 500 -c 1 -i 0 -a 1
r -t 0.128 -s 2 -d 3 -p cbr -e 1000 -c 1 -i 6 -a 1
+ -t 0.128 -s 3 -d 4 -p cbr -e 1000 -c 1 -i 6 -a 1
- -t 0.128 -s 3 -d 4 -p cbr -e 1000 -c 1 -i 6 -a 1
h -t 0.128 -s 3 -d 4 -p cbr -e 1000 -c 1 -i 6 -a 1
+ -t 0.13 -s 1 -d 3 -p cbr -e 500 -c 1 -i 11 -a 1
- -t 0.13 -s 1 -d 3 -p cbr -e 500 -c 1 -i 11 -a 1
h -t 0.13 -s 1 -d 3 -p cbr -e 500 -c 1 -i 11 -a 1
+ -t 0.13 -s 2 -d 3 -p cbr -e 1000 -c 1 -i 12 -a 1
- -t 0.13 -s 2 -d 3 -p cbr -e 1000 -c 1 -i 12 -a 1
h -t 0.13 -s 2 -d 3 -p cbr -e 1000 -c 1 -i 12 -a 1
r -t 0.134 -s 1 -d 3 -p cbr -e 500 -c 1 -i 7 -a 1
+ -t 0.134 -s 3 -d 4 -p cbr -e 500 -c 1 -i 7 -a 1
- -t 0.136 -s 3 -d 4 -p cbr -e 500 -c 1 -i 7 -a 1
h -t 0.136 -s 3 -d 4 -p cbr -e 500 -c 1 -i 7 -a 1
r -t 0.138 -s 3 -d 4 -p cbr -e 500 -c 1 -i 1 -a 1
+ -t 0.138 -s 4 -d 6 -p cbr -e 500 -c 1 -i 1 -a 1
- -t 0.138 -s 4 -d 6 -p cbr -e 500 -c 1 -i 1 -a 1
h -t 0.138 -s 4 -d 6 -p cbr -e 500 -c 1 -i 1 -a 1
r -t 0.138 -s 2 -d 3 -p cbr -e 1000 -c 1 -i 8 -a 1
+ -t 0.138 -s 3 -d 4 -p cbr -e 1000 -c 1 -i 8 -a 1
+ -t 0.14 -s 1 -d 3 -p cbr -e 500 -c 1 -i 13 -a 1
- -t 0.14 -s 1 -d 3 -p cbr -e 500 -c 1 -i 13 -a 1
h -t 0.14 -s 1 -d 3 -p cbr -e 500 -c 1 -i 13 -a 1
+ -t 0.14 -s 2 -d 3 -p cbr -e 1000 -c 1 -i 14 -a 1
- -t 0.14 -s 2 -d 3 -p cbr -e 1000 -c 1 -i 14 -a 1
h -t 0.14 -s 2 -d 3 -p cbr -e 1000 -c 1 -i 14 -a 1
- -t 0.14 -s 3 -d 4 -p cbr -e 1000 -c 1 -i 8 -a 1
h -t 0.14 -s 3 -d 4 -p cbr -e 1000 -c 1 -i 8 -a 1
r -t 0.144 -s 1 -d 3 -p cbr -e 500 -c 1 -i 9 -a 1
+ -t 0.144 -s 3 -d 4 -p cbr -e 500 -c 1 -i 9 -a 1
r -t 0.148 -s 2 -d 3 -p cbr -e 1000 -c 1 -i 10 -a 1
+ -t 0.148 -s 3 -d 4 -p cbr -e 1000 -c 1 -i 10 -a 1
r -t 0.148 -s 3 -d 4 -p cbr -e 500 -c 1 -i 2 -a 1
+ -t 0.148 -s 4 -d 6 -p cbr -e 500 -c 1 -i 2 -a 1
- -t 0.148 -s 4 -d 6 -p cbr -e 500 -c 1 -i 2 -a 1
h -t 0.148 -s 4 -d 6 -p cbr -e 500 -c 1 -i 2 -a 1
- -t 0.148 -s 3 -d 4 -p cbr -e 500 -c 1 -i 9 -a 1
h -t 0.148 -s 3 -d 4 -p cbr -e 500 -c 1 -i 9 -a 1
+ -t 0.15 -s 1 -d 3 -p cbr -e 500 -c 1 -i 15 -a 1
- -t 0.15 -s 1 -d 3 -p cbr -e 500 -c 1 -i 15 -a 1
h -t 0.15 -s 1 -d 3 -p cbr -e 500 -c 1 -i 15 -a 1
+ -t 0.15 -s 2 -d 3 -p cbr -e 1000 -c 1 -i 16 -a 1
- -t 0.15 -s 2 -d 3 -p cbr -e 1000 -c 1 -i 16 -a 1
h -t 0.15 -s 2 -d 3 -p cbr -e 1000 -c 1 -i 16 -a 1
r -t 0.152 -s 4 -d 6 -p cbr -e 500 -c 1 -i 0 -a 1
- -t 0.152 -s 3 -d 4 -p cbr -e 1000 -c 1 -i 10 -a 1
h -t 0.152 -s 3 -d 4 -p cbr -e 1000 -c 1 -i 10 -a 1
r -t 0.154 -s 1 -d 3 -p cbr -e 500 -c 1 -i 11 -a 1
+ -t 0.154 -s 3 -d 4 -p cbr -e 500 -c 1 -i 11 -a 1
r -t 0.158 -s 2 -d 3 -p cbr -e 1000 -c 1 -i 12 -a 1
+ -t 0.158 -s 3 -d 4 -p cbr -e 1000 -c 1 -i 12 -a 1
r -t 0.158 -s 3 -d 4 -p cbr -e 500 -c 1 -i 3 -a 1
+ -t 0.158 -s 4 -d 6 -p cbr -e 500 -c 1 -i 3 -a 1
- -t 0.158 -s 4 -d 6 -p cbr -e 500 -c 1 -i 3 -a 1
h -t 0.158 -s 4 -d 6 -p cbr -e 500 -c 1 -i 3 -a 1
+ -t 0.16 -s 1 -d 3 -p cbr -e 500 -c 1 -i 17 -a 1
- -t 0.16 -s 1 -d 3 -p cbr -e 500 -c 1 -i 17 -a 1
h -t 0.16 -s 1 -d 3 -p cbr -e 500 -c 1 -i 17 -a 1
+ -t 0.16 -s 2 -d 3 -p cbr -e 1000 -c 1 -i 18 -a 1
- -t 0.16 -s 2 -d 3 -p cbr -e 1000 -c 1 -i 18 -a 1
h -t 0.16 -s 2 -d 3 -p cbr -e 1000 -c 1 -i 18 -a 1
- -t 0.16 -s 3 -d 4 -p cbr -e 500 -c 1 -i 11 -a 1
h -t 0.16 -s 3 -d 4 -p cbr -e 500 -c 1 -i 11 -a 1
r -t 0.162 -s 4 -d 6 -p cbr -e 500 -c 1 -i 1 -a 1
r -t 0.164 -s 1 -d 3 -p cbr -e 500 -c 1 -i 13 -a 1
+ -t 0.164 -s 3 -d 4 -p cbr -e 500 -c 1 -i 13 -a 1
- -t 0.164 -s 3 -d 4 -p cbr -e 1000 -c 1 -i 12 -a 1
h -t 0.164 -s 3 -d 4 -p cbr -e 1000 -c 1 -i 12 -a 1
r -t 0.168 -s 3 -d 4 -p cbr -e 500 -c 1 -i 4 -a 1
+ -t 0.168 -s 4 -d 6 -p cbr -e 500 -c 1 -i 4 -a 1
- -t 0.168 -s 4 -d 6 -p cbr -e 500 -c 1 -i 4 -a 1
h -t 0.168 -s 4 -d 6 -p cbr -e 500 -c 1 -i 4 -a 1
r -t 0.168 -s 2 -d 3 -p cbr -e 1000 -c 1 -i 14 -a 1
+ -t 0.168 -s 3 -d 4 -p cbr -e 1000 -c 1 -i 14 -a 1
+ -t 0.17 -s 1 -d 3 -p cbr -e 500 -c 1 -i 19 -a 1
- -t 0.17 -s 1 -d 3 -p cbr -e 500 -c 1 -i 19 -a 1
h -t 0.17 -s 1 -d 3 -p cbr -e 500 -c 1 -i 19 -a 1
+ -t 0.17 -s 2 -d 3 -p cbr -e 1000 -c 1 -i 20 -a 1
- -t 0.17 -s 2 -d 3 -p cbr -e 1000 -c 1 -i 20 -a 1
h -t 0.17 -s 2 -d 3 -p cbr -e 1000 -c 1 -i 20 -a 1
r -t 0.172 -s 4 -d 6 -p cbr -e 500 -c 1 -i 2 -a 1
- -t 0.172 -s 3 -d 4 -p cbr -e 500 -c 1 -i 13 -a 1
h -t 0.172 -s 3 -d 4 -p cbr -e 500 -c 1 -i 13 -a 1
r -t 0.174 -s 1 -d 3 -p cbr -e 500 -c 1 -i 15 -a 1
+ -t 0.174 -s 3 -d 4 -p cbr -e 500 -c 1 -i 15 -a 1
- -t 0.176 -s 3 -d 4 -p cbr -e 1000 -c 1 -i 14 -a 1
h -t 0.176 -s 3 -d 4 -p cbr -e 1000 -c 1 -i 14 -a 1
r -t 0.178 -s 3 -d 4 -p cbr -e 500 -c 1 -i 5 -a 1
+ -t 0.178 -s 4 -d 6 -p cbr -e 500 -c 1 -i 5 -a 1
- -t 0.178 -s 4 -d 6 -p cbr -e 500 -c 1 -i 5 -a 1
h -t 0.178 -s 4 -d 6 -p cbr -e 500 -c 1 -i 5 -a 1
r -t 0.178 -s 2 -d 3 -p cbr -e 1000 -c 1 -i 16 -a 1
+ -t 0.178 -s 3 -d 4 -p cbr -e 1000 -c 1 -i 16 -a 1
+ -t 0.18 -s 1 -d 3 -p cbr -e 500 -c 1 -i 21 -a 1
- -t 0.18 -s 1 -d 3 -p cbr -e 500 -c 1 -i 21 -a 1
h -t 0.18 -s 1 -d 3 -p cbr -e 500 -c 1 -i 21 -a 1
+ -t 0.18 -s 2 -d 3 -p cbr -e 1000 -c 1 -i 22 -a 1
- -t 0.18 -s 2 -d 3 -p cbr -e 1000 -c 1 -i 22 -a 1
h -t 0.18 -s 2 -d 3 -p cbr -e 1000 -c 1 -i 22 -a 1
r -t 0.182 -s 4 -d 6 -p cbr -e 500 -c 1 -i 3 -a 1
r -t 0.184 -s 1 -d 3 -p cbr -e 500 -c 1 -i 17 -a 1
+ -t 0.184 -s 3 -d 4 -p cbr -e 500 -c 1 -i 17 -a 1
- -t 0.184 -s 3 -d 4 -p cbr -e 500 -c 1 -i 15 -a 1
h -t 0.184 -s 3 -d 4 -p cbr -e 500 -c 1 -i 15 -a 1
r -t 0.186 -s 3 -d 4 -p cbr -e 1000 -c 1 -i 6 -a 1
+ -t 0.186 -s 4 -d 7 -p cbr -e 1000 -c 1 -i 6 -a 1
- -t 0.186 -s 4 -d 7 -p cbr -e 1000 -c 1 -i 6 -a 1
h -t 0.186 -s 4 -d 7 -p cbr -e 1000 -c 1 -i 6 -a 1
r -t 0.188 -s 2 -d 3 -p cbr -e 1000 -c 1 -i 18 -a 1
+ -t 0.188 -s 3 -d 4 -p cbr -e 1000 -c 1 -i 18 -a 1
- -t 0.188 -s 3 -d 4 -p cbr -e 1000 -c 1 -i 16 -a 1
h -t 0.188 -s 3 -d 4 -p cbr -e 1000 -c 1 -i 16 -a 1
r -t 0.19 -s 3 -d 4 -p cbr -e 500 -c 1 -i 7 -a 1
+ -t 0.19 -s 4 -d 6 -p cbr -e 500 -c 1 -i 7 -a 1
- -t 0.19 -s 4 -d 6 -p cbr -e 500 -c 1 -i 7 -a 1
h -t 0.19 -s 4 -d 6 -p cbr -e 500 -c 1 -i 7 -a 1
+ -t 0.19 -s 1 -d 3 -p cbr -e 500 -c 1 -i 23 -a 1
- -t 0.19 -s 1 -d 3 -p cbr -e 500 -c 1 -i 23 -a 1
h -t 0.19 -s 1 -d 3 -p cbr -e 500 -c 1 -i 23 -a 1
+ -t 0.19 -s 2 -d 3 -p cbr -e 1000 -c 1 -i 24 -a 1
- -t 0.19 -s 2 -d 3 -p cbr -e 1000 -c 1 -i 24 -a 1
h -t 0.19 -s 2 -d 3 -p cbr -e 1000 -c 1 -i 24 -a 1
r -t 0.192 -s 4 -d 6 -p cbr -e 500 -c 1 -i 4 -a 1
r -t 0.194 -s 1 -d 3 -p cbr -e 500 -c 1 -i 19 -a 1
+ -t 0.194 -s 3 -d 4 -p cbr -e 500 -c 1 -i 19 -a 1
- -t 0.196 -s 3 -d 4 -p cbr -e 500 -c 1 -i 17 -a 1
h -t 0.196 -s 3 -d 4 -p cbr -e 500 -c 1 -i 17 -a 1
r -t 0.198 -s 3 -d 4 -p cbr -e 1000 -c 1 -i 8 -a 1
+ -t 0.198 -s 4 -d 7 -p cbr -e 1000 -c 1 -i 8 -a 1
- -t 0.198 -s 4 -d 7 -p cbr -e 1000 -c 1 -i 8 -a 1
h -t 0.198 -s 4 -d 7 -p cbr -e 1000 -c 1 -i 8 -a 1
r -t 0.198 -s 2 -d 3 -p cbr -e 1000 -c 1 -i 20 -a 1
+ -t 0.198 -s 3 -d 4 -p cbr -e 1000 -c 1 -i 20 -a 1
+ -t 0.2 -s 1 -d 3 -p cbr -e 500 -c 1 -i 25 -a 1
- -t 0.2 -s 1 -d 3 -p cbr -e 500 -c 1 -i 25 -a 1
h -t 0.2 -s 1 -d 3 -p cbr -e 500 -c 1 -i 25 -a 1
+ -t 0.2 -s 2 -d 3 -p cbr -e 1000 -c 1 -i 26 -a 1
- -t 0.2 -s 2 -d 3 -p cbr -e 1000 -c 1 -i 26 -a 1
h -t 0.2 -s 2 -d 3 -p cbr -e 1000 -c 1 -i 26 -a 1
- -t 0.2 -s 3 -d 4 -p cbr -e 1000 -c 1 -i 18 -a 1
h -t 0.2 -s 3 -d 4 -p cbr -e 1000 -c 1 -i 18 -a 1
r -t 0.202 -s 4 -d 6 -p cbr -e 500 -c 1 -i 5 -a 1
r -t 0.202 -s 3 -d 4 -p cbr -e 500 -c 1 -i 9 -a 1
+ -t 0.202 -s 4 -d 6 -p cbr -e 500 -c 1 -i 9 -a 1
- -t 0.202 -s 4 -d 6 -p cbr -e 500 -c 1 -i 9 -a 1
h -t 0.202 -s 4 -d 6 -p cbr -e 500 -c 1 -i 9 -a 1
r -t 0.204 -s 1 -d 3 -p cbr -e 500 -c 1 -i 21 -a 1
+ -t 0.204 -s 3 -d 4 -p cbr -e 500 -c 1 -i 21 -a 1
r -t 0.208 -s 2 -d 3 -p cbr -e 1000 -c 1 -i 22 -a 1
+ -t 0.208 -s 3 -d 4 -p cbr -e 1000 -c 1 -i 22 -a 1
- -t 0.208 -s 3 -d 4 -p cbr -e 500 -c 1 -i 19 -a 1
h -t 0.208 -s 3 -d 4 -p cbr -e 500 -c 1 -i 19 -a 1
r -t 0.21 -s 3 -d 4 -p cbr -e 1000 -c 1 -i 10 -a 1
+ -t 0.21 -s 4 -d 7 -p cbr -e 1000 -c 1 -i 10 -a 1
- -t 0.21 -s 4 -d 7 -p cbr -e 1000 -c 1 -i 10 -a 1
h -t 0.21 -s 4 -d 7 -p cbr -e 1000 -c 1 -i 10 -a 1
+ -t 0.21 -s 1 -d 3 -p cbr -e 500 -c 1 -i 27 -a 1
- -t 0.21 -s 1 -d 3 -p cbr -e 500 -c 1 -i 27 -a 1
h -t 0.21 -s 1 -d 3 -p cbr -e 500 -c 1 -i 27 -a 1
+ -t 0.21 -s 2 -d 3 -p cbr -e 1000 -c 1 -i 28 -a 1
- -t 0.21 -s 2 -d 3 -p cbr -e 1000 -c 1 -i 28 -a 1
h -t 0.21 -s 2 -d 3 -p cbr -e 1000 -c 1 -i 28 -a 1
- -t 0.212 -s 3 -d 4 -p cbr -e 1000 -c 1 -i 20 -a 1
h -t 0.212 -s 3 -d 4 -p cbr -e 1000 -c 1 -i 20 -a 1
r -t 0.214 -s 4 -d 7 -p cbr -e 1000 -c 1 -i 6 -a 1
r -t 0.214 -s 4 -d 6 -p cbr -e 500 -c 1 -i 7 -a 1
r -t 0.214 -s 3 -d 4 -p cbr -e 500 -c 1 -i 11 -a 1
+ -t 0.214 -s 4 -d 6 -p cbr -e 500 -c 1 -i 11 -a 1
- -t 0.214 -s 4 -d 6 -p cbr -e 500 -c 1 -i 11 -a 1
h -t 0.214 -s 4 -d 6 -p cbr -e 500 -c 1 -i 11 -a 1
r -t 0.214 -s 1 -d 3 -p cbr -e 500 -c 1 -i 23 -a 1
+ -t 0.214 -s 3 -d 4 -p cbr -e 500 -c 1 -i 23 -a 1
r -t 0.218 -s 2 -d 3 -p cbr -e 1000 -c 1 -i 24 -a 1
+ -t 0.218 -s 3 -d 4 -p cbr -e 1000 -c 1 -i 24 -a 1
+ -t 0.22 -s 1 -d 3 -p cbr -e 500 -c 1 -i 29 -a 1
- -t 0.22 -s 1 -d 3 -p cbr -e 500 -c 1 -i 29 -a 1
h -t 0.22 -s 1 -d 3 -p cbr -e 500 -c 1 -i 29 -a 1
+ -t 0.22 -s 2 -d 3 -p cbr -e 1000 -c 1 -i 30 -a 1
- -t 0.22 -s 2 -d 3 -p cbr -e 1000 -c 1 -i 30 -a 1
h -t 0.22 -s 2 -d 3 -p cbr -e 1000 -c 1 -i 30 -a 1
- -t 0.22 -s 3 -d 4 -p cbr -e 500 -c 1 -i 21 -a 1
h -t 0.22 -s 3 -d 4 -p cbr -e 500 -c 1 -i 21 -a 1
r -t 0.222 -s 3 -d 4 -p cbr -e 1000 -c 1 -i 12 -a 1
+ -t 0.222 -s 4 -d 7 -p cbr -e 1000 -c 1 -i 12 -a 1
- -t 0.222 -s 4 -d 7 -p cbr -e 1000 -c 1 -i 12 -a 1
h -t 0.222 -s 4 -d 7 -p cbr -e 1000 -c 1 -i 12 -a 1
r -t 0.224 -s 1 -d 3 -p cbr -e 500 -c 1 -i 25 -a 1
+ -t 0.224 -s 3 -d 4 -p cbr -e 500 -c 1 -i 25 -a 1
- -t 0.224 -s 3 -d 4 -p cbr -e 1000 -c 1 -i 22 -a 1
h -t 0.224 -s 3 -d 4 -p cbr -e 1000 -c 1 -i 22 -a 1
r -t 0.226 -s 4 -d 7 -p cbr -e 1000 -c 1 -i 8 -a 1
r -t 0.226 -s 4 -d 6 -p cbr -e 500 -c 1 -i 9 -a 1
r -t 0.226 -s 3 -d 4 -p cbr -e 500 -c 1 -i 13 -a 1
+ -t 0.226 -s 4 -d 6 -p cbr -e 500 -c 1 -i 13 -a 1
- -t 0.226 -s 4 -d 6 -p cbr -e 500 -c 1 -i 13 -a 1
h -t 0.226 -s 4 -d 6 -p cbr -e 500 -c 1 -i 13 -a 1
r -t 0.228 -s 2 -d 3 -p cbr -e 1000 -c 1 -i 26 -a 1
+ -t 0.228 -s 3 -d 4 -p cbr -e 1000 -c 1 -i 26 -a 1
+ -t 0.23 -s 1 -d 3 -p cbr -e 500 -c 1 -i 31 -a 1
- -t 0.23 -s 1 -d 3 -p cbr -e 500 -c 1 -i 31 -a 1
h -t 0.23 -s 1 -d 3 -p cbr -e 500 -c 1 -i 31 -a 1
+ -t 0.23 -s 2 -d 3 -p cbr -e 1000 -c 1 -i 32 -a 1
- -t 0.23 -s 2 -d 3 -p cbr -e 1000 -c 1 -i 32 -a 1
h -t 0.23 -s 2 -d 3 -p cbr -e 1000 -c 1 -i 32 -a 1
- -t 0.232 -s 3 -d 4 -p cbr -e 500 -c 1 -i 23 -a 1
h -t 0.232 -s 3 -d 4 -p cbr -e 500 -c 1 -i 23 -a 1
r -t 0.234 -s 3 -d 4 -p cbr -e 1000 -c 1 -i 14 -a 1
+ -t 0.234 -s 4 -d 7 -p cbr -e 1000 -c 1 -i 14 -a 1
- -t 0.234 -s 4 -d 7 -p cbr -e 1000 -c 1 -i 14 -a 1
h -t 0.234 -s 4 -d 7 -p cbr -e 1000 -c 1 -i 14 -a 1
r -t 0.234 -s 1 -d 3 -p cbr -e 500 -c 1 -i 27 -a 1
+ -t 0.234 -s 3 -d 4 -p cbr -e 500 -c 1 -i 27 -a 1
- -t 0.236 -s 3 -d 4 -p cbr -e 1000 -c 1 -i 24 -a 1
h -t 0.236 -s 3 -d 4 -p cbr -e 1000 -c 1 -i 24 -a 1
r -t 0.238 -s 4 -d 7 -p cbr -e 1000 -c 1 -i 10 -a 1
r -t 0.238 -s 4 -d 6 -p cbr -e 500 -c 1 -i 11 -a 1
r -t 0.238 -s 3 -d 4 -p cbr -e 500 -c 1 -i 15 -a 1
+ -t 0.238 -s 4 -d 6 -p cbr -e 500 -c 1 -i 15 -a 1
- -t 0.238 -s 4 -d 6 -p cbr -e 500 -c 1 -i 15 -a 1
h -t 0.238 -s 4 -d 6 -p cbr -e 500 -c 1 -i 15 -a 1
r -t 0.238 -s 2 -d 3 -p cbr -e 1000 -c 1 -i 28 -a 1
+ -t 0.238 -s 3 -d 4 -p cbr -e 1000 -c 1 -i 28 -a 1
+ -t 0.24 -s 1 -d 3 -p cbr -e 500 -c 1 -i 33 -a 1
- -t 0.24 -s 1 -d 3 -p cbr -e 500 -c 1 -i 33 -a 1
h -t 0.24 -s 1 -d 3 -p cbr -e 500 -c 1 -i 33 -a 1
+ -t 0.24 -s 2 -d 3 -p cbr -e 1000 -c 1 -i 34 -a 1
- -t 0.24 -s 2 -d 3 -p cbr -e 1000 -c 1 -i 34 -a 1
h -t 0.24 -s 2 -d 3 -p cbr -e 1000 -c 1 -i 34 -a 1
r -t 0.244 -s 1 -d 3 -p cbr -e 500 -c 1 -i 29 -a 1
+ -t 0.244 -s 3 -d 4 -p cbr -e 500 -c 1 -i 29 -a 1
- -t 0.244 -s 3 -d 4 -p cbr -e 500 -c 1 -i 25 -a 1
h -t 0.244 -s 3 -d 4 -p cbr -e 500 -c 1 -i 25 -a 1
r -t 0.246 -s 3 -d 4 -p cbr -e 1000 -c 1 -i 16 -a 1
+ -t 0.246 -s 4 -d 7 -p cbr -e 1000 -c 1 -i 16 -a 1
- -t 0.246 -s 4 -d 7 -p cbr -e 1000 -c 1 -i 16 -a 1
h -t 0.246 -s 4 -d 7 -p cbr -e 1000 -c 1 -i 16 -a 1
r -t 0.248 -s 2 -d 3 -p cbr -e 1000 -c 1 -i 30 -a 1
+ -t 0.248 -s 3 -d 4 -p cbr -e 1000 -c 1 -i 30 -a 1
- -t 0.248 -s 3 -d 4 -p cbr -e 1000 -c 1 -i 26 -a 1
h -t 0.248 -s 3 -d 4 -p cbr -e 1000 -c 1 -i 26 -a 1
r -t 0.25 -s 3 -d 4 -p cbr -e 500 -c 1 -i 17 -a 1
+ -t 0.25 -s 4 -d 6 -p cbr -e 500 -c 1 -i 17 -a 1
- -t 0.25 -s 4 -d 6 -p cbr -e 500 -c 1 -i 17 -a 1
h -t 0.25 -s 4 -d 6 -p cbr -e 500 -c 1 -i 17 -a 1
r -t 0.25 -s 4 -d 7 -p cbr -e 1000 -c 1 -i 12 -a 1
r -t 0.25 -s 4 -d 6 -p cbr -e 500 -c 1 -i 13 -a 1
+ -t 0.25 -s 1 -d 3 -p cbr -e 500 -c 1 -i 35 -a 1
- -t 0.25 -s 1 -d 3 -p cbr -e 500 -c 1 -i 35 -a 1
h -t 0.25 -s 1 -d 3 -p cbr -e 500 -c 1 -i 35 -a 1
+ -t 0.25 -s 2 -d 3 -p cbr -e 1000 -c 1 -i 36 -a 1
- -t 0.25 -s 2 -d 3 -p cbr -e 1000 -c 1 -i 36 -a 1
h -t 0.25 -s 2 -d 3 -p cbr -e 1000 -c 1 -i 36 -a 1
r -t 0.254 -s 1 -d 3 -p cbr -e 500 -c 1 -i 31 -a 1
+ -t 0.254 -s 3 -d 4 -p cbr -e 500 -c 1 -i 31 -a 1
- -t 0.256 -s 3 -d 4 -p cbr -e 500 -c 1 -i 27 -a 1
h -t 0.256 -s 3 -d 4 -p cbr -e 500 -c 1 -i 27 -a 1
r -t 0.258 -s 3 -d 4 -p cbr -e 1000 -c 1 -i 18 -a 1
+ -t 0.258 -s 4 -d 7 -p cbr -e 1000 -c 1 -i 18 -a 1
- -t 0.258 -s 4 -d 7 -p cbr -e 1000 -c 1 -i 18 -a 1
h -t 0.258 -s 4 -d 7 -p cbr -e 1000 -c 1 -i 18 -a 1
r -t 0.258 -s 2 -d 3 -p cbr -e 1000 -c 1 -i 32 -a 1
+ -t 0.258 -s 3 -d 4 -p cbr -e 1000 -c 1 -i 32 -a 1
+ -t 0.26 -s 1 -d 3 -p cbr -e 500 -c 1 -i 37 -a 1
- -t 0.26 -s 1 -d 3 -p cbr -e 500 -c 1 -i 37 -a 1
h -t 0.26 -s 1 -d 3 -p cbr -e 500 -c 1 -i 37 -a 1
+ -t 0.26 -s 2 -d 3 -p cbr -e 1000 -c 1 -i 38 -a 1
- -t 0.26 -s 2 -d 3 -p cbr -e 1000 -c 1 -i 38 -a 1
h -t 0.26 -s 2 -d 3 -p cbr -e 1000 -c 1 -i 38 -a 1
- -t 0.26 -s 3 -d 4 -p cbr -e 1000 -c 1 -i 28 -a 1
h -t 0.26 -s 3 -d 4 -p cbr -e 1000 -c 1 -i 28 -a 1
r -t 0.262 -s 3 -d 4 -p cbr -e 500 -c 1 -i 19 -a 1
+ -t 0.262 -s 4 -d 6 -p cbr -e 500 -c 1 -i 19 -a 1
- -t 0.262 -s 4 -d 6 -p cbr -e 500 -c 1 -i 19 -a 1
h -t 0.262 -s 4 -d 6 -p cbr -e 500 -c 1 -i 19 -a 1
r -t 0.262 -s 4 -d 7 -p cbr -e 1000 -c 1 -i 14 -a 1
r -t 0.262 -s 4 -d 6 -p cbr -e 500 -c 1 -i 15 -a 1
r -t 0.264 -s 1 -d 3 -p cbr -e 500 -c 1 -i 33 -a 1
+ -t 0.264 -s 3 -d 4 -p cbr -e 500 -c 1 -i 33 -a 1
r -t 0.268 -s 2 -d 3 -p cbr -e 1000 -c 1 -i 34 -a 1
+ -t 0.268 -s 3 -d 4 -p cbr -e 1000 -c 1 -i 34 -a 1
- -t 0.268 -s 3 -d 4 -p cbr -e 500 -c 1 -i 29 -a 1
h -t 0.268 -s 3 -d 4 -p cbr -e 500 -c 1 -i 29 -a 1
r -t 0.27 -s 3 -d 4 -p cbr -e 1000 -c 1 -i 20 -a 1
+ -t 0.27 -s 4 -d 7 -p cbr -e 1000 -c 1 -i 20 -a 1
- -t 0.27 -s 4 -d 7 -p cbr -e 1000 -c 1 -i 20 -a 1
h -t 0.27 -s 4 -d 7 -p cbr -e 1000 -c 1 -i 20 -a 1
+ -t 0.27 -s 1 -d 3 -p cbr -e 500 -c 1 -i 39 -a 1
- -t 0.27 -s 1 -d 3 -p cbr -e 500 -c 1 -i 39 -a 1
h -t 0.27 -s 1 -d 3 -p cbr -e 500 -c 1 -i 39 -a 1
+ -t 0.27 -s 2 -d 3 -p cbr -e 1000 -c 1 -i 40 -a 1
- -t 0.27 -s 2 -d 3 -p cbr -e 1000 -c 1 -i 40 -a 1
h -t 0.27 -s 2 -d 3 -p cbr -e 1000 -c 1 -i 40 -a 1
- -t 0.272 -s 3 -d 4 -p cbr -e 1000 -c 1 -i 30 -a 1
h -t 0.272 -s 3 -d 4 -p cbr -e 1000 -c 1 -i 30 -a 1
r -t 0.274 -s 3 -d 4 -p cbr -e 500 -c 1 -i 21 -a 1
+ -t 0.274 -s 4 -d 6 -p cbr -e 500 -c 1 -i 21 -a 1
- -t 0.274 -s 4 -d 6 -p cbr -e 500 -c 1 -i 21 -a 1
h -t 0.274 -s 4 -d 6 -p cbr -e 500 -c 1 -i 21 -a 1
r -t 0.274 -s 4 -d 7 -p cbr -e 1000 -c 1 -i 16 -a 1
r -t 0.274 -s 4 -d 6 -p cbr -e 500 -c 1 -i 17 -a 1
r -t 0.274 -s 1 -d 3 -p cbr -e 500 -c 1 -i 35 -a 1
+ -t 0.274 -s 3 -d 4 -p cbr -e 500 -c 1 -i 35 -a 1
r -t 0.278 -s 2 -d 3 -p cbr -e 1000 -c 1 -i 36 -a 1
+ -t 0.278 -s 3 -d 4 -p cbr -e 1000 -c 1 -i 36 -a 1
+ -t 0.28 -s 1 -d 3 -p cbr -e 500 -c 1 -i 41 -a 1
- -t 0.28 -s 1 -d 3 -p cbr -e 500 -c 1 -i 41 -a 1
h -t 0.28 -s 1 -d 3 -p cbr -e 500 -c 1 -i 41 -a 1
+ -t 0.28 -s 2 -d 3 -p cbr -e 1000 -c 1 -i 42 -a 1
- -t 0.28 -s 2 -d 3 -p cbr -e 1000 -c 1 -i 42 -a 1
h -t 0.28 -s 2 -d 3 -p cbr -e 1000 -c 1 -i 42 -a 1
- -t 0.28 -s 3 -d 4 -p cbr -e 500 -c 1 -i 31 -a 1
h -t 0.28 -s 3 -d 4 -p cbr -e 500 -c 1 -i 31 -a 1
r -t 0.282 -s 3 -d 4 -p cbr -e 1000 -c 1 -i 22 -a 1
+ -t 0.282 -s 4 -d 7 -p cbr -e 1000 -c 1 -i 22 -a 1
- -t 0.282 -s 4 -d 7 -p cbr -e 1000 -c 1 -i 22 -a 1
h -t 0.282 -s 4 -d 7 -p cbr -e 1000 -c 1 -i 22 -a 1
r -t 0.284 -s 1 -d 3 -p cbr -e 500 -c 1 -i 37 -a 1
+ -t 0.284 -s 3 -d 4 -p cbr -e 500 -c 1 -i 37 -a 1
- -t 0.284 -s 3 -d 4 -p cbr -e 1000 -c 1 -i 32 -a 1
h -t 0.284 -s 3 -d 4 -p cbr -e 1000 -c 1 -i 32 -a 1
r -t 0.286 -s 3 -d 4 -p cbr -e 500 -c 1 -i 23 -a 1
+ -t 0.286 -s 4 -d 6 -p cbr -e 500 -c 1 -i 23 -a 1
- -t 0.286 -s 4 -d 6 -p cbr -e 500 -c 1 -i 23 -a 1
h -t 0.286 -s 4 -d 6 -p cbr -e 500 -c 1 -i 23 -a 1
r -t 0.286 -s 4 -d 7 -p cbr -e 1000 -c 1 -i 18 -a 1
r -t 0.286 -s 4 -d 6 -p cbr -e 500 -c 1 -i 19 -a 1
r -t 0.288 -s 2 -d 3 -p cbr -e 1000 -c 1 -i 38 -a 1
+ -t 0.288 -s 3 -d 4 -p cbr -e 1000 -c 1 -i 38 -a 1
+ -t 0.29 -s 1 -d 3 -p cbr -e 500 -c 1 -i 43 -a 1
- -t 0.29 -s 1 -d 3 -p cbr -e 500 -c 1 -i 43 -a 1
h -t 0.29 -s 1 -d 3 -p cbr -e 500 -c 1 -i 43 -a 1
+ -t 0.29 -s 2 -d 3 -p cbr -e 1000 -c 1 -i 44 -a 1
- -t 0.29 -s 2 -d 3 -p cbr -e 1000 -c 1 -i 44 -a 1
h -t 0.29 -s 2 -d 3 -p cbr -e 1000 -c 1 -i 44 -a 1
- -t 0.292 -s 3 -d 4 -p cbr -e 500 -c 1 -i 33 -a 1
h -t 0.292 -s 3 -d 4 -p cbr -e 500 -c 1 -i 33 -a 1
r -t 0.294 -s 3 -d 4 -p cbr -e 1000 -c 1 -i 24 -a 1
+ -t 0.294 -s 4 -d 7 -p cbr -e 1000 -c 1 -i 24 -a 1
- -t 0.294 -s 4 -d 7 -p cbr -e 1000 -c 1 -i 24 -a 1
h -t 0.294 -s 4 -d 7 -p cbr -e 1000 -c 1 -i 24 -a 1
r -t 0.294 -s 1 -d 3 -p cbr -e 500 -c 1 -i 39 -a 1
+ -t 0.294 -s 3 -d 4 -p cbr -e 500 -c 1 -i 39 -a 1
- -t 0.296 -s 3 -d 4 -p cbr -e 1000 -c 1 -i 34 -a 1
h -t 0.296 -s 3 -d 4 -p cbr -e 1000 -c 1 -i 34 -a 1
r -t 0.298 -s 3 -d 4 -p cbr -e 500 -c 1 -i 25 -a 1
+ -t 0.298 -s 4 -d 6 -p cbr -e 500 -c 1 -i 25 -a 1
- -t 0.298 -s 4 -d 6 -p cbr -e 500 -c 1 -i 25 -a 1
h -t 0.298 -s 4 -d 6 -p cbr -e 500 -c 1 -i 25 -a 1
r -t 0.298 -s 4 -d 7 -p cbr -e 1000 -c 1 -i 20 -a 1
r -t 0.298 -s 4 -d 6 -p cbr -e 500 -c 1 -i 21 -a 1
r -t 0.298 -s 2 -d 3 -p cbr -e 1000 -c 1 -i 40 -a 1
+ -t 0.298 -s 3 -d 4 -p cbr -e 1000 -c 1 -i 40 -a 1
+ -t 0.3 -s 1 -d 3 -p cbr -e 500 -c 1 -i 45 -a 1
- -t 0.3 -s 1 -d 3 -p cbr -e 500 -c 1 -i 45 -a 1
h -t 0.3 -s 1 -d 3 -p cbr -e 500 -c 1 -i 45 -a 1
+ -t 0.3 -s 2 -d 3 -p cbr -e 1000 -c 1 -i 46 -a 1
- -t 0.3 -s 2 -d 3 -p cbr -e 1000 -c 1 -i 46 -a 1
h -t 0.3 -s 2 -d 3 -p cbr -e 1000 -c 1 -i 46 -a 1
r -t 0.304 -s 1 -d 3 -p cbr -e 500 -c 1 -i 41 -a 1
+ -t 0.304 -s 3 -d 4 -p cbr -e 500 -c 1 -i 41 -a 1
- -t 0.304 -s 3 -d 4 -p cbr -e 500 -c 1 -i 35 -a 1
h -t 0.304 -s 3 -d 4 -p cbr -e 500 -c 1 -i 35 -a 1
r -t 0.306 -s 3 -d 4 -p cbr -e 1000 -c 1 -i 26 -a 1
+ -t 0.306 -s 4 -d 7 -p cbr -e 1000 -c 1 -i 26 -a 1
- -t 0.306 -s 4 -d 7 -p cbr -e 1000 -c 1 -i 26 -a 1
h -t 0.306 -s 4 -d 7 -p cbr -e 1000 -c 1 -i 26 -a 1
r -t 0.308 -s 2 -d 3 -p cbr -e 1000 -c 1 -i 42 -a 1
+ -t 0.308 -s 3 -d 4 -p cbr -e 1000 -c 1 -i 42 -a 1
- -t 0.308 -s 3 -d 4 -p cbr -e 1000 -c 1 -i 36 -a 1
h -t 0.308 -s 3 -d 4 -p cbr -e 1000 -c 1 -i 36 -a 1
r -t 0.31 -s 3 -d 4 -p cbr -e 500 -c 1 -i 27 -a 1
+ -t 0.31 -s 4 -d 6 -p cbr -e 500 -c 1 -i 27 -a 1
- -t 0.31 -s 4 -d 6 -p cbr -e 500 -c 1 -i 27 -a 1
h -t 0.31 -s 4 -d 6 -p cbr -e 500 -c 1 -i 27 -a 1
r -t 0.31 -s 4 -d 7 -p cbr -e 1000 -c 1 -i 22 -a 1
r -t 0.31 -s 4 -d 6 -p cbr -e 500 -c 1 -i 23 -a 1
+ -t 0.31 -s 1 -d 3 -p cbr -e 500 -c 1 -i 47 -a 1
- -t 0.31 -s 1 -d 3 -p cbr -e 500 -c 1 -i 47 -a 1
h -t 0.31 -s 1 -d 3 -p cbr -e 500 -c 1 -i 47 -a 1
+ -t 0.31 -s 2 -d 3 -p cbr -e 1000 -c 1 -i 48 -a 1
- -t 0.31 -s 2 -d 3 -p cbr -e 1000 -c 1 -i 48 -a 1
h -t 0.31 -s 2 -d 3 -p cbr -e 1000 -c 1 -i 48 -a 1
r -t 0.314 -s 1 -d 3 -p cbr -e 500 -c 1 -i 43 -a 1
+ -t 0.314 -s 3 -d 4 -p cbr -e 500 -c 1 -i 43 -a 1
- -t 0.316 -s 3 -d 4 -p cbr -e 500 -c 1 -i 37 -a 1
h -t 0.316 -s 3 -d 4 -p cbr -e 500 -c 1 -i 37 -a 1
r -t 0.318 -s 3 -d 4 -p cbr -e 1000 -c 1 -i 28 -a 1
+ -t 0.318 -s 4 -d 7 -p cbr -e 1000 -c 1 -i 28 -a 1
- -t 0.318 -s 4 -d 7 -p cbr -e 1000 -c 1 -i 28 -a 1
h -t 0.318 -s 4 -d 7 -p cbr -e 1000 -c 1 -i 28 -a 1
r -t 0.318 -s 2 -d 3 -p cbr -e 1000 -c 1 -i 44 -a 1
+ -t 0.318 -s 3 -d 4 -p cbr -e 1000 -c 1 -i 44 -a 1
+ -t 0.32 -s 1 -d 3 -p cbr -e 500 -c 1 -i 49 -a 1
- -t 0.32 -s 1 -d 3 -p cbr -e 500 -c 1 -i 49 -a 1
h -t 0.32 -s 1 -d 3 -p cbr -e 500 -c 1 -i 49 -a 1
+ -t 0.32 -s 2 -d 3 -p cbr -e 1000 -c 1 -i 50 -a 1
- -t 0.32 -s 2 -d 3 -p cbr -e 1000 -c 1 -i 50 -a 1
h -t 0.32 -s 2 -d 3 -p cbr -e 1000 -c 1 -i 50 -a 1
- -t 0.32 -s 3 -d 4 -p cbr -e 1000 -c 1 -i 38 -a 1
h -t 0.32 -s 3 -d 4 -p cbr -e 1000 -c 1 -i 38 -a 1
r -t 0.322 -s 3 -d 4 -p cbr -e 500 -c 1 -i 29 -a 1
+ -t 0.322 -s 4 -d 6 -p cbr -e 500 -c 1 -i 29 -a 1
- -t 0.322 -s 4 -d 6 -p cbr -e 500 -c 1 -i 29 -a 1
h -t 0.322 -s 4 -d 6 -p cbr -e 500 -c 1 -i 29 -a 1
r -t 0.322 -s 4 -d 7 -p cbr -e 1000 -c 1 -i 24 -a 1
r -t 0.322 -s 4 -d 6 -p cbr -e 500 -c 1 -i 25 -a 1
r -t 0.324 -s 1 -d 3 -p cbr -e 500 -c 1 -i 45 -a 1
+ -t 0.324 -s 3 -d 4 -p cbr -e 500 -c 1 -i 45 -a 1
r -t 0.328 -s 2 -d 3 -p cbr -e 1000 -c 1 -i 46 -a 1
+ -t 0.328 -s 3 -d 4 -p cbr -e 1000 -c 1 -i 46 -a 1
- -t 0.328 -s 3 -d 4 -p cbr -e 500 -c 1 -i 39 -a 1
h -t 0.328 -s 3 -d 4 -p cbr -e 500 -c 1 -i 39 -a 1
r -t 0.33 -s 3 -d 4 -p cbr -e 1000 -c 1 -i 30 -a 1
+ -t 0.33 -s 4 -d 7 -p cbr -e 1000 -c 1 -i 30 -a 1
- -t 0.33 -s 4 -d 7 -p cbr -e 1000 -c 1 -i 30 -a 1
h -t 0.33 -s 4 -d 7 -p cbr -e 1000 -c 1 -i 30 -a 1
+ -t 0.33 -s 1 -d 3 -p cbr -e 500 -c 1 -i 51 -a 1
- -t 0.33 -s 1 -d 3 -p cbr -e 500 -c 1 -i 51 -a 1
h -t 0.33 -s 1 -d 3 -p cbr -e 500 -c 1 -i 51 -a 1
+ -t 0.33 -s 2 -d 3 -p cbr -e 1000 -c 1 -i 52 -a 1
- -t 0.33 -s 2 -d 3 -p cbr -e 1000 -c 1 -i 52 -a 1
h -t 0.33 -s 2 -d 3 -p cbr -e 1000 -c 1 -i 52 -a 1
- -t 0.332 -s 3 -d 4 -p cbr -e 1000 -c 1 -i 40 -a 1
h -t 0.332 -s 3 -d 4 -p cbr -e 1000 -c 1 -i 40 -a 1
r -t 0.334 -s 3 -d 4 -p cbr -e 500 -c 1 -i 31 -a 1
+ -t 0.334 -s 4 -d 6 -p cbr -e 500 -c 1 -i 31 -a 1
- -t 0.334 -s 4 -d 6 -p cbr -e 500 -c 1 -i 31 -a 1
h -t 0.334 -s 4 -d 6 -p cbr -e 500 -c 1 -i 31 -a 1
r -t 0.334 -s 4 -d 7 -p cbr -e 1000 -c 1 -i 26 -a 1
r -t 0.334 -s 4 -d 6 -p cbr -e 500 -c 1 -i 27 -a 1
r -t 0.334 -s 1 -d 3 -p cbr -e 500 -c 1 -i 47 -a 1
+ -t 0.334 -s 3 -d 4 -p cbr -e 500 -c 1 -i 47 -a 1
r -t 0.338 -s 2 -d 3 -p cbr -e 1000 -c 1 -i 48 -a 1
+ -t 0.338 -s 3 -d 4 -p cbr -e 1000 -c 1 -i 48 -a 1
+ -t 0.34 -s 1 -d 3 -p cbr -e 500 -c 1 -i 53 -a 1
- -t 0.34 -s 1 -d 3 -p cbr -e 500 -c 1 -i 53 -a 1
h -t 0.34 -s 1 -d 3 -p cbr -e 500 -c 1 -i 53 -a 1
+ -t 0.34 -s 2 -d 3 -p cbr -e 1000 -c 1 -i 54 -a 1
- -t 0.34 -s 2 -d 3 -p cbr -e 1000 -c 1 -i 54 -a 1
h -t 0.34 -s 2 -d 3 -p cbr -e 1000 -c 1 -i 54 -a 1
- -t 0.34 -s 3 -d 4 -p cbr -e 500 -c 1 -i 41 -a 1
h -t 0.34 -s 3 -d 4 -p cbr -e 500 -c 1 -i 41 -a 1
r -t 0.342 -s 3 -d 4 -p cbr -e 1000 -c 1 -i 32 -a 1
+ -t 0.342 -s 4 -d 7 -p cbr -e 1000 -c 1 -i 32 -a 1
- -t 0.342 -s 4 -d 7 -p cbr -e 1000 -c 1 -i 32 -a 1
h -t 0.342 -s 4 -d 7 -p cbr -e 1000 -c 1 -i 32 -a 1
r -t 0.344 -s 1 -d 3 -p cbr -e 500 -c 1 -i 49 -a 1
+ -t 0.344 -s 3 -d 4 -p cbr -e 500 -c 1 -i 49 -a 1
- -t 0.344 -s 3 -d 4 -p cbr -e 1000 -c 1 -i 42 -a 1
h -t 0.344 -s 3 -d 4 -p cbr -e 1000 -c 1 -i 42 -a 1
r -t 0.346 -s 3 -d 4 -p cbr -e 500 -c 1 -i 33 -a 1
+ -t 0.346 -s 4 -d 6 -p cbr -e 500 -c 1 -i 33 -a 1
- -t 0.346 -s 4 -d 6 -p cbr -e 500 -c 1 -i 33 -a 1
h -t 0.346 -s 4 -d 6 -p cbr -e 500 -c 1 -i 33 -a 1
r -t 0.346 -s 4 -d 7 -p cbr -e 1000 -c 1 -i 28 -a 1
r -t 0.346 -s 4 -d 6 -p cbr -e 500 -c 1 -i 29 -a 1
r -t 0.348 -s 2 -d 3 -p cbr -e 1000 -c 1 -i 50 -a 1
+ -t 0.348 -s 3 -d 4 -p cbr -e 1000 -c 1 -i 50 -a 1
+ -t 0.35 -s 1 -d 3 -p cbr -e 500 -c 1 -i 55 -a 1
- -t 0.35 -s 1 -d 3 -p cbr -e 500 -c 1 -i 55 -a 1
h -t 0.35 -s 1 -d 3 -p cbr -e 500 -c 1 -i 55 -a 1
+ -t 0.35 -s 2 -d 3 -p cbr -e 1000 -c 1 -i 56 -a 1
- -t 0.35 -s 2 -d 3 -p cbr -e 1000 -c 1 -i 56 -a 1
h -t 0.35 -s 2 -d 3 -p cbr -e 1000 -c 1 -i 56 -a 1
- -t 0.352 -s 3 -d 4 -p cbr -e 500 -c 1 -i 43 -a 1
h -t 0.352 -s 3 -d 4 -p cbr -e 500 -c 1 -i 43 -a 1
r -t 0.354 -s 3 -d 4 -p cbr -e 1000 -c 1 -i 34 -a 1
+ -t 0.354 -s 4 -d 7 -p cbr -e 1000 -c 1 -i 34 -a 1
- -t 0.354 -s 4 -d 7 -p cbr -e 1000 -c 1 -i 34 -a 1
h -t 0.354 -s 4 -d 7 -p cbr -e 1000 -c 1 -i 34 -a 1
r -t 0.354 -s 1 -d 3 -p cbr -e 500 -c 1 -i 51 -a 1
+ -t 0.354 -s 3 -d 4 -p cbr -e 500 -c 1 -i 51 -a 1
- -t 0.356 -s 3 -d 4 -p cbr -e 1000 -c 1 -i 44 -a 1
h -t 0.356 -s 3 -d 4 -p cbr -e 1000 -c 1 -i 44 -a 1
r -t 0.358 -s 3 -d 4 -p cbr -e 500 -c 1 -i 35 -a 1
+ -t 0.358 -s 4 -d 6 -p cbr -e 500 -c 1 -i 35 -a 1
- -t 0.358 -s 4 -d 6 -p cbr -e 500 -c 1 -i 35 -a 1
h -t 0.358 -s 4 -d 6 -p cbr -e 500 -c 1 -i 35 -a 1
r -t 0.358 -s 4 -d 7 -p cbr -e 1000 -c 1 -i 30 -a 1
r -t 0.358 -s 4 -d 6 -p cbr -e 500 -c 1 -i 31 -a 1
r -t 0.358 -s 2 -d 3 -p cbr -e 1000 -c 1 -i 52 -a 1
+ -t 0.358 -s 3 -d 4 -p cbr -e 1000 -c 1 -i 52 -a 1
+ -t 0.36 -s 1 -d 3 -p cbr -e 500 -c 1 -i 57 -a 1
- -t 0.36 -s 1 -d 3 -p cbr -e 500 -c 1 -i 57 -a 1
h -t 0.36 -s 1 -d 3 -p cbr -e 500 -c 1 -i 57 -a 1
+ -t 0.36 -s 2 -d 3 -p cbr -e 1000 -c 1 -i 58 -a 1
- -t 0.36 -s 2 -d 3 -p cbr -e 1000 -c 1 -i 58 -a 1
h -t 0.36 -s 2 -d 3 -p cbr -e 1000 -c 1 -i 58 -a 1
r -t 0.364 -s 1 -d 3 -p cbr -e 500 -c 1 -i 53 -a 1
+ -t 0.364 -s 3 -d 4 -p cbr -e 500 -c 1 -i 53 -a 1
- -t 0.364 -s 3 -d 4 -p cbr -e 500 -c 1 -i 45 -a 1
h -t 0.364 -s 3 -d 4 -p cbr -e 500 -c 1 -i 45 -a 1
r -t 0.366 -s 3 -d 4 -p cbr -e 1000 -c 1 -i 36 -a 1
+ -t 0.366 -s 4 -d 7 -p cbr -e 1000 -c 1 -i 36 -a 1