v 0 eval {set sim_annotation {Sliding Window (window size=8) in a heavely loaded network}}
+ 0.05 1 3 cbr 500 ------- 1 1.0 6.0 0 0
- 0.05 1 3 cbr 500 ------- 1 1.0 6.0 0 0
v 0.050000000000000003 eval {set sim_annotation {CBR-1 starts}}
+ 0.06 1 3 cbr 500 ------- 1 1.0 6.0 1 1
- 0.06 1 3 cbr 500 ------- 1 1.0 6.0 1 1
+ 0.07 1 3 cbr 500 ------- 1 1.0 6.0 2 2
- 0.07 1 3 cbr 500 ------- 1 1.0 6.0 2 2
r 0.074 1 3 cbr 500 ------- 1 1.0 6.0 0 0
+ 0.074 3 4 cbr 500 ------- 1 1.0 6.0 0 0
- 0.074 3 4 cbr 500 ------- 1 1.0 6.0 0 0
+ 0.08 1 3 cbr 500 ------- 1 1.0 6.0 3 3
- 0.08 1 3 cbr 500 ------- 1 1.0 6.0 3 3
r 0.084 1 3 cbr 500 ------- 1 1.0 6.0 1 1
+ 0.084 3 4 cbr 500 ------- 1 1.0 6.0 1 1
- 0.084 3 4 cbr 500 ------- 1 1.0 6.0 1 1
+ 0.09 1 3 cbr 500 ------- 1 1.0 6.0 4 4
- 0.09 1 3 cbr 500 ------- 1 1.0 6.0 4 4
r 0.094 1 3 cbr 500 ------- 1 1.0 6.0 2 2
+ 0.094 3 4 cbr 500 ------- 1 1.0 6.0 2 2
- 0.094 3 4 cbr 500 ------- 1 1.0 6.0 2 2
+ 0.1 1 3 cbr 500 ------- 1 1.0 6.0 5 5
- 0.1 1 3 cbr 500 ------- 1 1.0 6.0 5 5
+ 0.1 2 3 cbr 1000 ------- 1 2.0 7.0 0 6
- 0.1 2 3 cbr 1000 ------- 1 2.0 7.0 0 6
v 0.10000000000000001 eval {set sim_annotation {CBR-2 starts}}
r 0.104 1 3 cbr 500 ------- 1 1.0 6.0 3 3
+ 0.104 3 4 cbr 500 ------- 1 1.0 6.0 3 3
- 0.104 3 4 cbr 500 ------- 1 1.0 6.0 3 3
+ 0.11 1 3 cbr 500 ------- 1 1.0 6.0 6 7
- 0.11 1 3 cbr 500 ------- 1 1.0 6.0 6 7
+ 0.11 2 3 cbr 1000 ------- 1 2.0 7.0 1 8
- 0.11 2 3 cbr 1000 ------- 1 2.0 7.0 1 8
r 0.114 1 3 cbr 500 ------- 1 1.0 6.0 4 4
+ 0.114 3 4 cbr 500 ------- 1 1.0 6.0 4 4
- 0.114 3 4 cbr 500 ------- 1 1.0 6.0 4 4
+ 0.12 1 3 cbr 500 ------- 1 1.0 6.0 7 9
- 0.12 1 3 cbr 500 ------- 1 1.0 6.0 7 9
+ 0.12 2 3 cbr 1000 ------- 1 2.0 7.0 2 10
- 0.12 2 3 cbr 1000 ------- 1 2.0 7.0 2 10
r 0.124 1 3 cbr 500 ------- 1 1.0 6.0 5 5
+ 0.124 3 4 cbr 500 ------- 1 1.0 6.0 5 5
- 0.124 3 4 cbr 500 ------- 1 1.0 6.0 5 5
r 0.128 3 4 cbr 500 ------- 1 1.0 6.0 0 0
+ 0.128 4 6 cbr 500 ------- 1 1.0 6.0 0 0
- 0.128 4 6 cbr 500 ------- 1 1.0 6.0 0 0
r 0.128 2 3 cbr 1000 ------- 1 2.0 7.0 0 6
+ 0.128 3 4 cbr 1000 ------- 1 2.0 7.0 0 6
- 0.128 3 4 cbr 1000 ------- 1 2.0 7.0 0 6
+ 0.13 1 3 cbr 500 ------- 1 1.0 6.0 8 11
- 0.13 1 3 cbr 500 ------- 1 1.0 6.0 8 11
+ 0.13 2 3 cbr 1000 ------- 1 2.0 7.0 3 12
- 0.13 2 3 cbr 1000 ------- 1 2.0 7.0 3 12
r 0.134 1 3 cbr 500 ------- 1 1.0 6.0 6 7
+ 0.134 3 4 cbr 500 ------- 1 1.0 6.0 6 7
- 0.136 3 4 cbr 500 ------- 1 1.0 6.0 6 7
r 0.138 3 4 cbr 500 ------- 1 1.0 6.0 1 1
+ 0.138 4 6 cbr 500 ------- 1 1.0 6.0 1 1
- 0.138 4 6 cbr 500 ------- 1 1.0 6.0 1 1
r 0.138 2 3 cbr 1000 ------- 1 2.0 7.0 1 8
+ 0.138 3 4 cbr 1000 ------- 1 2.0 7.0 1 8
+ 0.14 1 3 cbr 500 ------- 1 1.0 6.0 9 13
- 0.14 1 3 cbr 500 ------- 1 1.0 6.0 9 13
+ 0.14 2 3 cbr 1000 ------- 1 2.0 7.0 4 14
- 0.14 2 3 cbr 1000 ------- 1 2.0 7.0 4 14
- 0.14 3 4 cbr 1000 ------- 1 2.0 7.0 1 8
r 0.144 1 3 cbr 500 ------- 1 1.0 6.0 7 9
+ 0.144 3 4 cbr 500 ------- 1 1.0 6.0 7 9
r 0.148 2 3 cbr 1000 ------- 1 2.0 7.0 2 10
+ 0.148 3 4 cbr 1000 ------- 1 2.0 7.0 2 10
r 0.148 3 4 cbr 500 ------- 1 1.0 6.0 2 2
+ 0.148 4 6 cbr 500 ------- 1 1.0 6.0 2 2
- 0.148 4 6 cbr 500 ------- 1 1.0 6.0 2 2
- 0.148 3 4 cbr 500 ------- 1 1.0 6.0 7 9
+ 0.15 1 3 cbr 500 ------- 1 1.0 6.0 10 15
- 0.15 1 3 cbr 500 ------- 1 1.0 6.0 10 15
+ 0.15 2 3 cbr 1000 ------- 1 2.0 7.0 5 16
- 0.15 2 3 cbr 1000 ------- 1 2.0 7.0 5 16
r 0.152 4 6 cbr 500 ------- 1 1.0 6.0 0 0
- 0.152 3 4 cbr 1000 ------- 1 2.0 7.0 2 10
r 0.154 1 3 cbr 500 ------- 1 1.0 6.0 8 11
+ 0.154 3 4 cbr 500 ------- 1 1.0 6.0 8 11
r 0.158 2 3 cbr 1000 ------- 1 2.0 7.0 3 12
+ 0.158 3 4 cbr 1000 ------- 1 2.0 7.0 3 12
r 0.158 3 4 cbr 500 ------- 1 1.0 6.0 3 3
+ 0.158 4 6 cbr 500 ------- 1 1.0 6.0 3 3
- 0.158 4 6 cbr 500 ------- 1 1.0 6.0 3 3
+ 0.16 1 3 cbr 500 ------- 1 1.0 6.0 11 17
- 0.16 1 3 cbr 500 ------- 1 1.0 6.0 11 17
+ 0.16 2 3 cbr 1000 ------- 1 2.0 7.0 6 18
- 0.16 2 3 cbr 1000 ------- 1 2.0 7.0 6 18
- 0.16 3 4 cbr 500 ------- 1 1.0 6.0 8 11
r 0.162 4 6 cbr 500 ------- 1 1.0 6.0 1 1
r 0.164 1 3 cbr 500 ------- 1 1.0 6.0 9 13
+ 0.164 3 4 cbr 500 ------- 1 1.0 6.0 9 13
- 0.164 3 4 cbr 1000 ------- 1 2.0 7.0 3 12
r 0.168 3 4 cbr 500 ------- 1 1.0 6.0 4 4
+ 0.168 4 6 cbr 500 ------- 1 1.0 6.0 4 4
- 0.168 4 6 cbr 500 ------- 1 1.0 6.0 4 4
r 0.168 2 3 cbr 1000 ------- 1 2.0 7.0 4 14
+ 0.168 3 4 cbr 1000 ------- 1 2.0 7.0 4 14
+ 0.17 1 3 cbr 500 ------- 1 1.0 6.0 12 19
- 0.17 1 3 cbr 500 ------- 1 1.0 6.0 12 19
+ 0.17 2 3 cbr 1000 ------- 1 2.0 7.0 7 20
- 0.17 2 3 cbr 1000 ------- 1 2.0 7.0 7 20
r 0.172 4 6 cbr 500 ------- 1 1.0 6.0 2 2
- 0.172 3 4 cbr 500 ------- 1 1.0 6.0 9 13
r 0.174 1 3 cbr 500 ------- 1 1.0 6.0 10 15
+ 0.174 3 4 cbr 500 ------- 1 1.0 6.0 10 15
- 0.176 3 4 cbr 1000 ------- 1 2.0 7.0 4 14
r 0.178 3 4 cbr 500 ------- 1 1.0 6.0 5 5
+ 0.178 4 6 cbr 500 ------- 1 1.0 6.0 5 5
- 0.178 4 6 cbr 500 ------- 1 1.0 6.0 5 5
r 0.178 2 3 cbr 1000 ------- 1 2.0 7.0 5 16
+ 0.178 3 4 cbr 1000 ------- 1 2.0 7.0 5 16
+ 0.18 1 3 cbr 500 ------- 1 1.0 6.0 13 21
- 0.18 1 3 cbr 500 ------- 1 1.0 6.0 13 21
+ 0.18 2 3 cbr 1000 ------- 1 2.0 7.0 8 22
- 0.18 2 3 cbr 1000 ------- 1 2.0 7.0 8 22
r 0.182 4 6 cbr 500 ------- 1 1.0 6.0 3 3
r 0.184 1 3 cbr 500 ------- 1 1.0 6.0 11 17
+ 0.184 3 4 cbr 500 ------- 1 1.0 6.0 11 17
- 0.184 3 4 cbr 500 ------- 1 1.0 6.0 10 15
r 0.186 3 4 cbr 1000 ------- 1 2.0 7.0 0 6
+ 0.186 4 7 cbr 1000 ------- 1 2.0 7.0 0 6
- 0.186 4 7 cbr 1000 ------- 1 2.0 7.0 0 6
r 0.188 2 3 cbr 1000 ------- 1 2.0 7.0 6 18
+ 0.188 3 4 cbr 1000 ------- 1 2.0 7.0 6 18
- 0.188 3 4 cbr 1000 ------- 1 2.0 7.0 5 16
r 0.19 3 4 cbr 500 ------- 1 1.0 6.0 6 7
+ 0.19 4 6 cbr 500 ------- 1 1.0 6.0 6 7
- 0.19 4 6 cbr 500 ------- 1 1.0 6.0 6 7
+ 0.19 1 3 cbr 500 ------- 1 1.0 6.0 14 23
- 0.19 1 3 cbr 500 ------- 1 1.0 6.0 14 23
+ 0.19 2 3 cbr 1000 ------- 1 2.0 7.0 9 24
- 0.19 2 3 cbr 1000 ------- 1 2.0 7.0 9 24
r 0.192 4 6 cbr 500 ------- 1 1.0 6.0 4 4
r 0.194 1 3 cbr 500 ------- 1 1.0 6.0 12 19
+ 0.194 3 4 cbr 500 ------- 1 1.0 6.0 12 19
- 0.196 3 4 cbr 500 ------- 1 1.0 6.0 11 17
r 0.198 3 4 cbr 1000 ------- 1 2.0 7.0 1 8
+ 0.198 4 7 cbr 1000 ------- 1 2.0 7.0 1 8
- 0.198 4 7 cbr 1000 ------- 1 2.0 7.0 1 8
r 0.198 2 3 cbr 1000 ------- 1 2.0 7.0 7 20
+ 0.198 3 4 cbr 1000 ------- 1 2.0 7.0 7 20
+ 0.2 1 3 cbr 500 ------- 1 1.0 6.0 15 25
- 0.2 1 3 cbr 500 ------- 1 1.0 6.0 15 25
+ 0.2 2 3 cbr 1000 ------- 1 2.0 7.0 10 26
- 0.2 2 3 cbr 1000 ------- 1 2.0 7.0 10 26
- 0.2 3 4 cbr 1000 ------- 1 2.0 7.0 6 18
r 0.202 4 6 cbr 500 ------- 1 1.0 6.0 5 5
r 0.202 3 4 cbr 500 ------- 1 1.0 6.0 7 9
+ 0.202 4 6 cbr 500 ------- 1 1.0 6.0 7 9
- 0.202 4 6 cbr 500 ------- 1 1.0 6.0 7 9
r 0.204 1 3 cbr 500 ------- 1 1.0 6.0 13 21
+ 0.204 3 4 cbr 500 ------- 1 1.0 6.0 13 21
r 0.208 2 3 cbr 1000 ------- 1 2.0 7.0 8 22
+ 0.208 3 4 cbr 1000 ------- 1 2.0 7.0 8 22
- 0.208 3 4 cbr 500 ------- 1 1.0 6.0 12 19
r 0.21 3 4 cbr 1000 ------- 1 2.0 7.0 2 10
+ 0.21 4 7 cbr 1000 ------- 1 2.0 7.0 2 10
- 0.21 4 7 cbr 1000 ------- 1 2.0 7.0 2 10
+ 0.21 1 3 cbr 500 ------- 1 1.0 6.0 16 27
- 0.21 1 3 cbr 500 ------- 1 1.0 6.0 16 27
+ 0.21 2 3 cbr 1000 ------- 1 2.0 7.0 11 28
- 0.21 2 3 cbr 1000 ------- 1 2.0 7.0 11 28
- 0.212 3 4 cbr 1000 ------- 1 2.0 7.0 7 20
r 0.214 4 7 cbr 1000 ------- 1 2.0 7.0 0 6
r 0.214 4 6 cbr 500 ------- 1 1.0 6.0 6 7
r 0.214 3 4 cbr 500 ------- 1 1.0 6.0 8 11
+ 0.214 4 6 cbr 500 ------- 1 1.0 6.0 8 11
- 0.214 4 6 cbr 500 ------- 1 1.0 6.0 8 11
r 0.214 1 3 cbr 500 ------- 1 1.0 6.0 14 23
+ 0.214 3 4 cbr 500 ------- 1 1.0 6.0 14 23
r 0.218 2 3 cbr 1000 ------- 1 2.0 7.0 9 24
+ 0.218 3 4 cbr 1000 ------- 1 2.0 7.0 9 24
+ 0.22 1 3 cbr 500 ------- 1 1.0 6.0 17 29
- 0.22 1 3 cbr 500 ------- 1 1.0 6.0 17 29
+ 0.22 2 3 cbr 1000 ------- 1 2.0 7.0 12 30
- 0.22 2 3 cbr 1000 ------- 1 2.0 7.0 12 30
- 0.22 3 4 cbr 500 ------- 1 1.0 6.0 13 21
r 0.222 3 4 cbr 1000 ------- 1 2.0 7.0 3 12
+ 0.222 4 7 cbr 1000 ------- 1 2.0 7.0 3 12
- 0.222 4 7 cbr 1000 ------- 1 2.0 7.0 3 12
r 0.224 1 3 cbr 500 ------- 1 1.0 6.0 15 25
+ 0.224 3 4 cbr 500 ------- 1 1.0 6.0 15 25
- 0.224 3 4 cbr 1000 ------- 1 2.0 7.0 8 22
r 0.226 4 7 cbr 1000 ------- 1 2.0 7.0 1 8
r 0.226 4 6 cbr 500 ------- 1 1.0 6.0 7 9
r 0.226 3 4 cbr 500 ------- 1 1.0 6.0 9 13
+ 0.226 4 6 cbr 500 ------- 1 1.0 6.0 9 13
- 0.226 4 6 cbr 500 ------- 1 1.0 6.0 9 13
r 0.228 2 3 cbr 1000 ------- 1 2.0 7.0 10 26
+ 0.228 3 4 cbr 1000 ------- 1 2.0 7.0 10 26
+ 0.23 1 3 cbr 500 ------- 1 1.0 6.0 18 31
- 0.23 1 3 cbr 500 ------- 1 1.0 6.0 18 31
+ 0.23 2 3 cbr 1000 ------- 1 2.0 7.0 13 32
- 0.23 2 3 cbr 1000 ------- 1 2.0 7.0 13 32
- 0.232 3 4 cbr 500 ------- 1 1.0 6.0 14 23
r 0.234 3 4 cbr 1000 ------- 1 2.0 7.0 4 14
+ 0.234 4 7 cbr 1000 ------- 1 2.0 7.0 4 14
- 0.234 4 7 cbr 1000 ------- 1 2.0 7.0 4 14
r 0.234 1 3 cbr 500 ------- 1 1.0 6.0 16 27
+ 0.234 3 4 cbr 500 ------- 1 1.0 6.0 16 27
- 0.236 3 4 cbr 1000 ------- 1 2.0 7.0 9 24
r 0.238 4 7 cbr 1000 ------- 1 2.0 7.0 2 10
r 0.238 4 6 cbr 500 ------- 1 1.0 6.0 8 11
r 0.238 3 4 cbr 500 ------- 1 1.0 6.0 10 15
+ 0.238 4 6 cbr 500 ------- 1 1.0 6.0 10 15
- 0.238 4 6 cbr 500 ------- 1 1.0 6.0 10 15
r 0.238 2 3 cbr 1000 ------- 1 2.0 7.0 11 28
+ 0.238 3 4 cbr 1000 ------- 1 2.0 7.0 11 28
+ 0.24 1 3 cbr 500 ------- 1 1.0 6.0 19 33
- 0.24 1 3 cbr 500 ------- 1 1.0 6.0 19 33
+ 0.24 2 3 cbr 1000 ------- 1 2.0 7.0 14 34
- 0.24 2 3 cbr 1000 ------- 1 2.0 7.0 14 34
r 0.244 1 3 cbr 500 ------- 1 1.0 6.0 17 29
+ 0.244 3 4 cbr 500 ------- 1 1.0 6.0 17 29
- 0.244 3 4 cbr 500 ------- 1 1.0 6.0 15 25
r 0.246 3 4 cbr 1000 ------- 1 2.0 7.0 5 16
+ 0.246 4 7 cbr 1000 ------- 1 2.0 7.0 5 16
- 0.246 4 7 cbr 1000 ------- 1 2.0 7.0 5 16
r 0.248 2 3 cbr 1000 ------- 1 2.0 7.0 12 30
+ 0.248 3 4 cbr 1000 ------- 1 2.0 7.0 12 30
- 0.248 3 4 cbr 1000 ------- 1 2.0 7.0 10 26
r 0.25 3 4 cbr 500 ------- 1 1.0 6.0 11 17
+ 0.25 4 6 cbr 500 ------- 1 1.0 6.0 11 17
- 0.25 4 6 cbr 500 ------- 1 1.0 6.0 11 17
r 0.25 4 7 cbr 1000 ------- 1 2.0 7.0 3 12
r 0.25 4 6 cbr 500 ------- 1 1.0 6.0 9 13
+ 0.25 1 3 cbr 500 ------- 1 1.0 6.0 20 35
- 0.25 1 3 cbr 500 ------- 1 1.0 6.0 20 35
+ 0.25 2 3 cbr 1000 ------- 1 2.0 7.0 15 36
- 0.25 2 3 cbr 1000 ------- 1 2.0 7.0 15 36
r 0.254 1 3 cbr 500 ------- 1 1.0 6.0 18 31
+ 0.254 3 4 cbr 500 ------- 1 1.0 6.0 18 31
- 0.256 3 4 cbr 500 ------- 1 1.0 6.0 16 27
r 0.258 3 4 cbr 1000 ------- 1 2.0 7.0 6 18
+ 0.258 4 7 cbr 1000 ------- 1 2.0 7.0 6 18
- 0.258 4 7 cbr 1000 ------- 1 2.0 7.0 6 18
r 0.258 2 3 cbr 1000 ------- 1 2.0 7.0 13 32
+ 0.258 3 4 cbr 1000 ------- 1 2.0 7.0 13 32
+ 0.26 1 3 cbr 500 ------- 1 1.0 6.0 21 37
- 0.26 1 3 cbr 500 ------- 1 1.0 6.0 21 37
+ 0.26 2 3 cbr 1000 ------- 1 2.0 7.0 16 38
- 0.26 2 3 cbr 1000 ------- 1 2.0 7.0 16 38
- 0.26 3 4 cbr 1000 ------- 1 2.0 7.0 11 28
r 0.262 3 4 cbr 500 ------- 1 1.0 6.0 12 19
+ 0.262 4 6 cbr 500 ------- 1 1.0 6.0 12 19
- 0.262 4 6 cbr 500 ------- 1 1.0 6.0 12 19
r 0.262 4 7 cbr 1000 ------- 1 2.0 7.0 4 14
r 0.262 4 6 cbr 500 ------- 1 1.0 6.0 10 15
r 0.264 1 3 cbr 500 ------- 1 1.0 6.0 19 33
+ 0.264 3 4 cbr 500 ------- 1 1.0 6.0 19 33
r 0.268 2 3 cbr 1000 ------- 1 2.0 7.0 14 34
+ 0.268 3 4 cbr 1000 ------- 1 2.0 7.0 14 34
- 0.268 3 4 cbr 500 ------- 1 1.0 6.0 17 29
r 0.27 3 4 cbr 1000 ------- 1 2.0 7.0 7 20
+ 0.27 4 7 cbr 1000 ------- 1 2.0 7.0 7 20
- 0.27 4 7 cbr 1000 ------- 1 2.0 7.0 7 20
+ 0.27 1 3 cbr 500 ------- 1 1.0 6.0 22 39
- 0.27 1 3 cbr 500 ------- 1 1.0 6.0 22 39
+ 0.27 2 3 cbr 1000 ------- 1 2.0 7.0 17 40
- 0.27 2 3 cbr 1000 ------- 1 2.0 7.0 17 40
- 0.272 3 4 cbr 1000 ------- 1 2.0 7.0 12 30
r 0.274 3 4 cbr 500 ------- 1 1.0 6.0 13 21
+ 0.274 4 6 cbr 500 ------- 1 1.0 6.0 13 21
- 0.274 4 6 cbr 500 ------- 1 1.0 6.0 13 21
r 0.274 4 7 cbr 1000 ------- 1 2.0 7.0 5 16
r 0.274 4 6 cbr 500 ------- 1 1.0 6.0 11 17
r 0.274 1 3 cbr 500 ------- 1 1.0 6.0 20 35
+ 0.274 3 4 cbr 500 ------- 1 1.0 6.0 20 35
r 0.278 2 3 cbr 1000 ------- 1 2.0 7.0 15 36
+ 0.278 3 4 cbr 1000 ------- 1 2.0 7.0 15 36
+ 0.28 1 3 cbr 500 ------- 1 1.0 6.0 23 41
- 0.28 1 3 cbr 500 ------- 1 1.0 6.0 23 41
+ 0.28 2 3 cbr 1000 ------- 1 2.0 7.0 18 42
- 0.28 2 3 cbr 1000 ------- 1 2.0 7.0 18 42
- 0.28 3 4 cbr 500 ------- 1 1.0 6.0 18 31
r 0.282 3 4 cbr 1000 ------- 1 2.0 7.0 8 22
+ 0.282 4 7 cbr 1000 ------- 1 2.0 7.0 8 22
- 0.282 4 7 cbr 1000 ------- 1 2.0 7.0 8 22
r 0.284 1 3 cbr 500 ------- 1 1.0 6.0 21 37
+ 0.284 3 4 cbr 500 ------- 1 1.0 6.0 21 37
- 0.284 3 4 cbr 1000 ------- 1 2.0 7.0 13 32
r 0.286 3 4 cbr 500 ------- 1 1.0 6.0 14 23
+ 0.286 4 6 cbr 500 ------- 1 1.0 6.0 14 23
- 0.286 4 6 cbr 500 ------- 1 1.0 6.0 14 23
r 0.286 4 7 cbr 1000 ------- 1 2.0 7.0 6 18
r 0.286 4 6 cbr 500 ------- 1 1.0 6.0 12 19
r 0.288 2 3 cbr 1000 ------- 1 2.0 7.0 16 38
+ 0.288 3 4 cbr 1000 ------- 1 2.0 7.0 16 38
+ 0.29 1 3 cbr 500 ------- 1 1.0 6.0 24 43
- 0.29 1 3 cbr 500 ------- 1 1.0 6.0 24 43
+ 0.29 2 3 cbr 1000 ------- 1 2.0 7.0 19 44
- 0.29 2 3 cbr 1000 ------- 1 2.0 7.0 19 44
- 0.292 3 4 cbr 500 ------- 1 1.0 6.0 19 33
r 0.294 3 4 cbr 1000 ------- 1 2.0 7.0 9 24
+ 0.294 4 7 cbr 1000 ------- 1 2.0 7.0 9 24
- 0.294 4 7 cbr 1000 ------- 1 2.0 7.0 9 24
r 0.294 1 3 cbr 500 ------- 1 1.0 6.0 22 39
+ 0.294 3 4 cbr 500 ------- 1 1.0 6.0 22 39
- 0.296 3 4 cbr 1000 ------- 1 2.0 7.0 14 34
r 0.298 3 4 cbr 500 ------- 1 1.0 6.0 15 25
+ 0.298 4 6 cbr 500 ------- 1 1.0 6.0 15 25
- 0.298 4 6 cbr 500 ------- 1 1.0 6.0 15 25
r 0.298 4 7 cbr 1000 ------- 1 2.0 7.0 7 20
r 0.298 4 6 cbr 500 ------- 1 1.0 6.0 13 21
r 0.298 2 3 cbr 1000 ------- 1 2.0 7.0 17 40
+ 0.298 3 4 cbr 1000 ------- 1 2.0 7.0 17 40
+ 0.3 1 3 cbr 500 ------- 1 1.0 6.0 25 45
- 0.3 1 3 cbr 500 ------- 1 1.0 6.0 25 45
+ 0.3 2 3 cbr 1000 ------- 1 2.0 7.0 20 46
- 0.3 2 3 cbr 1000 ------- 1 2.0 7.0 20 46
r 0.304 1 3 cbr 500 ------- 1 1.0 6.0 23 41
+ 0.304 3 4 cbr 500 ------- 1 1.0 6.0 23 41
- 0.304 3 4 cbr 500 ------- 1 1.0 6.0 20 35
r 0.306 3 4 cbr 1000 ------- 1 2.0 7.0 10 26
+ 0.306 4 7 cbr 1000 ------- 1 2.0 7.0 10 26
- 0.306 4 7 cbr 1000 ------- 1 2.0 7.0 10 26
r 0.308 2 3 cbr 1000 ------- 1 2.0 7.0 18 42
+ 0.308 3 4 cbr 1000 ------- 1 2.0 7.0 18 42
- 0.308 3 4 cbr 1000 ------- 1 2.0 7.0 15 36
r 0.31 3 4 cbr 500 ------- 1 1.0 6.0 16 27
+ 0.31 4 6 cbr 500 ------- 1 1.0 6.0 16 27
- 0.31 4 6 cbr 500 ------- 1 1.0 6.0 16 27
r 0.31 4 7 cbr 1000 ------- 1 2.0 7.0 8 22
r 0.31 4 6 cbr 500 ------- 1 1.0 6.0 14 23
+ 0.31 1 3 cbr 500 ------- 1 1.0 6.0 26 47
- 0.31 1 3 cbr 500 ------- 1 1.0 6.0 26 47
+ 0.31 2 3 cbr 1000 ------- 1 2.0 7.0 21 48
- 0.31 2 3 cbr 1000 ------- 1 2.0 7.0 21 48
r 0.314 1 3 cbr 500 ------- 1 1.0 6.0 24 43
+ 0.314 3 4 cbr 500 ------- 1 1.0 6.0 24 43
- 0.316 3 4 cbr 500 ------- 1 1.0 6.0 21 37
r 0.318 3 4 cbr 1000 ------- 1 2.0 7.0 11 28
+ 0.318 4 7 cbr 1000 ------- 1 2.0 7.0 11 28
- 0.318 4 7 cbr 1000 ------- 1 2.0 7.0 11 28
r 0.318 2 3 cbr 1000 ------- 1 2.0 7.0 19 44
+ 0.318 3 4 cbr 1000 ------- 1 2.0 7.0 19 44
+ 0.32 1 3 cbr 500 ------- 1 1.0 6.0 27 49
- 0.32 1 3 cbr 500 ------- 1 1.0 6.0 27 49
+ 0.32 2 3 cbr 1000 ------- 1 2.0 7.0 22 50
- 0.32 2 3 cbr 1000 ------- 1 2.0 7.0 22 50
- 0.32 3 4 cbr 1000 ------- 1 2.0 7.0 16 38
r 0.322 3 4 cbr 500 ------- 1 1.0 6.0 17 29
+ 0.322 4 6 cbr 500 ------- 1 1.0 6.0 17 29
- 0.322 4 6 cbr 500 ------- 1 1.0 6.0 17 29
r 0.322 4 7 cbr 1000 ------- 1 2.0 7.0 9 24
r 0.322 4 6 cbr 500 ------- 1 1.0 6.0 15 25
r 0.324 1 3 cbr 500 ------- 1 1.0 6.0 25 45
+ 0.324 3 4 cbr 500 ------- 1 1.0 6.0 25 45
r 0.328 2 3 cbr 1000 ------- 1 2.0 7.0 20 46
+ 0.328 3 4 cbr 1000 ------- 1 2.0 7.0 20 46
- 0.328 3 4 cbr 500 ------- 1 1.0 6.0 22 39
r 0.33 3 4 cbr 1000 ------- 1 2.0 7.0 12 30
+ 0.33 4 7 cbr 1000 ------- 1 2.0 7.0 12 30
- 0.33 4 7 cbr 1000 ------- 1 2.0 7.0 12 30
+ 0.33 1 3 cbr 500 ------- 1 1.0 6.0 28 51
- 0.33 1 3 cbr 500 ------- 1 1.0 6.0 28 51
+ 0.33 2 3 cbr 1000 ------- 1 2.0 7.0 23 52
- 0.33 2 3 cbr 1000 ------- 1 2.0 7.0 23 52
- 0.332 3 4 cbr 1000 ------- 1 2.0 7.0 17 40
r 0.334 3 4 cbr 500 ------- 1 1.0 6.0 18 31
+ 0.334 4 6 cbr 500 ------- 1 1.0 6.0 18 31
- 0.334 4 6 cbr 500 ------- 1 1.0 6.0 18 31
r 0.334 4 7 cbr 1000 ------- 1 2.0 7.0 10 26
r 0.334 4 6 cbr 500 ------- 1 1.0 6.0 16 27
r 0.334 1 3 cbr 500 ------- 1 1.0 6.0 26 47
+ 0.334 3 4 cbr 500 ------- 1 1.0 6.0 26 47
r 0.338 2 3 cbr 1000 ------- 1 2.0 7.0 21 48
+ 0.338 3 4 cbr 1000 ------- 1 2.0 7.0 21 48
+ 0.34 1 3 cbr 500 ------- 1 1.0 6.0 29 53
- 0.34 1 3 cbr 500 ------- 1 1.0 6.0 29 53
+ 0.34 2 3 cbr 1000 ------- 1 2.0 7.0 24 54
- 0.34 2 3 cbr 1000 ------- 1 2.0 7.0 24 54
- 0.34 3 4 cbr 500 ------- 1 1.0 6.0 23 41
r 0.342 3 4 cbr 1000 ------- 1 2.0 7.0 13 32
+ 0.342 4 7 cbr 1000 ------- 1 2.0 7.0 13 32
- 0.342 4 7 cbr 1000 ------- 1 2.0 7.0 13 32
r 0.344 1 3 cbr 500 ------- 1 1.0 6.0 27 49
+ 0.344 3 4 cbr 500 ------- 1 1.0 6.0 27 49
- 0.344 3 4 cbr 1000 ------- 1 2.0 7.0 18 42
r 0.346 3 4 cbr 500 ------- 1 1.0 6.0 19 33
+ 0.346 4 6 cbr 500 ------- 1 1.0 6.0 19 33
- 0.346 4 6 cbr 500 ------- 1 1.0 6.0 19 33
r 0.346 4 7 cbr 1000 ------- 1 2.0 7.0 11 28
r 0.346 4 6 cbr 500 ------- 1 1.0 6.0 17 29
r 0.348 2 3 cbr 1000 ------- 1 2.0 7.0 22 50
+ 0.348 3 4 cbr 1000 ------- 1 2.0 7.0 22 50
+ 0.35 1 3 cbr 500 ------- 1 1.0 6.0 30 55
- 0.35 1 3 cbr 500 ------- 1 1.0 6.0 30 55
+ 0.35 2 3 cbr 1000 ------- 1 2.0 7.0 25 56
- 0.35 2 3 cbr 1000 ------- 1 2.0 7.0 25 56
- 0.352 3 4 cbr 500 ------- 1 1.0 6.0 24 43
r 0.354 3 4 cbr 1000 ------- 1 2.0 7.0 14 34
+ 0.354 4 7 cbr 1000 ------- 1 2.0 7.0 14 34
- 0.354 4 7 cbr 1000 ------- 1 2.0 7.0 14 34
r 0.354 1 3 cbr 500 ------- 1 1.0 6.0 28 51
+ 0.354 3 4 cbr 500 ------- 1 1.0 6.0 28 51
- 0.356 3 4 cbr 1000 ------- 1 2.0 7.0 19 44
r 0.358 3 4 cbr 500 ------- 1 1.0 6.0 20 35
+ 0.358 4 6 cbr 500 ------- 1 1.0 6.0 20 35
- 0.358 4 6 cbr 500 ------- 1 1.0 6.0 20 35
r 0.358 4 7 cbr 1000 ------- 1 2.0 7.0 12 30
r 0.358 4 6 cbr 500 ------- 1 1.0 6.0 18 31
r 0.358 2 3 cbr 1000 ------- 1 2.0 7.0 23 52
+ 0.358 3 4 cbr 1000 ------- 1 2.0 7.0 23 52
+ 0.36 1 3 cbr 500 ------- 1 1.0 6.0 31 57
- 0.36 1 3 cbr 500 ------- 1 1.0 6.0 31 57
+ 0.36 2 3 cbr 1000 ------- 1 2.0 7.0 26 58
- 0.36 2 3 cbr 1000 ------- 1 2.0 7.0 26 58
r 0.364 1 3 cbr 500 ------- 1 1.0 6.0 29 53
+ 0.364 3 4 cbr 500 ------- 1 1.0 6.0 29 53
- 0.364 3 4 cbr 500 ------- 1 1.0 6.0 25 45
r 0.366 3 4 cbr 1000 ------- 1 2.0 7.0 15 36
+ 0.366 4 7 cbr 1000 ------- 1 2.0 7.0 15 36
- 0.366 4 7 cbr 1000 ------- 1 2.0 7.0 15 36
r 0.368 2 3 cbr 1000 ------- 1 2.0 7.0 24 54
+ 0.368 3 4 cbr 1000 ------- 1 2.0 7.0 24 54
- 0.368 3 4 cbr 1000 ------- 1 2.0 7.0 20 46
r 0.37 3 4 cbr 500 ------- 1 1.0 6.0 21 37
+ 0.37 4 6 cbr 500 ------- 1 1.0 6.0 21 37
- 0.37 4 6 cbr 500 ------- 1 1.0 6.0 21 37
r 0.37 4 7 cbr 1000 ------- 1 2.0 7.0 13 32
r 0.37 4 6 cbr 500 ------- 1 1.0 6.0 19 33
+ 0.37 1 3 cbr 500 ------- 1 1.0 6.0 32 59
- 0.37 1 3 cbr 500 ------- 1 1.0 6.0 32 59
+ 0.37 2 3 cbr 1000 ------- 1 2.0 7.0 27 60
- 0.37 2 3 cbr 1000 ------- 1 2.0 7.0 27 60
r 0.374 1 3 cbr 500 ------- 1 1.0 6.0 30 55
+ 0.374 3 4 cbr 500 ------- 1 1.0 6.0 30 55
- 0.376 3 4 cbr 500 ------- 1 1.0 6.0 26 47
r 0.378 3 4 cbr 1000 ------- 1 2.0 7.0 16 38
+ 0.378 4 7 cbr 1000 ------- 1 2.0 7.0 16 38
- 0.378 4 7 cbr 1000 ------- 1 2.0 7.0 16 38
r 0.378 2 3 cbr 1000 ------- 1 2.0 7.0 25 56
+ 0.378 3 4 cbr 1000 ------- 1 2.0 7.0 25 56
+ 0.38 1 3 cbr 500 ------- 1 1.0 6.0 33 61
- 0.38 1 3 cbr 500 ------- 1 1.0 6.0 33 61
+ 0.38 2 3 cbr 1000 ------- 1 2.0 7.0 28 62
- 0.38 2 3 cbr 1000 ------- 1 2.0 7.0 28 62
- 0.38 3 4 cbr 1000 ------- 1 2.0 7.0 21 48
r 0.382 3 4 cbr 500 ------- 1 1.0 6.0 22 39
+ 0.382 4 6 cbr 500 ------- 1 1.0 6.0 22 39
- 0.382 4 6 cbr 500 ------- 1 1.0 6.0 22 39
r 0.382 4 7 cbr 1000 ------- 1 2.0 7.0 14 34
r 0.382 4 6 cbr 500 ------- 1 1.0 6.0 20 35
r 0.384 1 3 cbr 500 ------- 1 1.0 6.0 31 57
+ 0.384 3 4 cbr 500 ------- 1 1.0 6.0 31 57
r 0.388 2 3 cbr 1000 ------- 1 2.0 7.0 26 58
+ 0.388 3 4 cbr 1000 ------- 1 2.0 7.0 26 58
d 0.388 3 4 cbr 1000 ------- 1 2.0 7.0 26 58
- 0.388 3 4 cbr 500 ------- 1 1.0 6.0 27 49
r 0.39 3 4 cbr 1000 ------- 1 2.0 7.0 17 40
+ 0.39 4 7 cbr 1000 ------- 1 2.0 7.0 17 40
- 0.39 4 7 cbr 1000 ------- 1 2.0 7.0 17 40
+ 0.39 1 3 cbr 500 ------- 1 1.0 6.0 34 63
- 0.39 1 3 cbr 500 ------- 1 1.0 6.0 34 63
+ 0.39 2 3 cbr 1000 ------- 1 2.0 7.0 29 64
- 0.39 2 3 cbr 1000 ------- 1 2.0 7.0 29 64
- 0.392 3 4 cbr 1000 ------- 1 2.0 7.0 22 50
r 0.394 3 4 cbr 500 ------- 1 1.0 6.0 23 41
+ 0.394 4 6 cbr 500 ------- 1 1.0 6.0 23 41
- 0.394 4 6 cbr 500 ------- 1 1.0 6.0 23 41
r 0.394 4 7 cbr 1000 ------- 1 2.0 7.0 15 36
r 0.394 4 6 cbr 500 ------- 1 1.0 6.0 21 37
r 0.394 1 3 cbr 500 ------- 1 1.0 6.0 32 59
+ 0.394 3 4 cbr 500 ------- 1 1.0 6.0 32 59
r 0.398 2 3 cbr 1000 ------- 1 2.0 7.0 27 60
+ 0.398 3 4 cbr 1000 ------- 1 2.0 7.0 27 60
+ 0.4 1 3 cbr 500 ------- 1 1.0 6.0 35 65
- 0.4 1 3 cbr 500 ------- 1 1.0 6.0 35 65
+ 0.4 2 3 cbr 1000 ------- 1 2.0 7.0 30 66
- 0.4 2 3 cbr 1000 ------- 1 2.0 7.0 30 66
- 0.4 3 4 cbr 500 ------- 1 1.0 6.0 28 51
r 0.402 3 4 cbr 1000 ------- 1 2.0 7.0 18 42
+ 0.402 4 7 cbr 1000 ------- 1 2.0 7.0 18 42
- 0.402 4 7 cbr 1000 ------- 1 2.0 7.0 18 42
r 0.404 1 3 cbr 500 ------- 1 1.0 6.0 33 61
+ 0.404 3 4 cbr 500 ------- 1 1.0 6.0 33 61
- 0.404 3 4 cbr 1000 ------- 1 2.0 7.0 23 52
r 0.406 3 4 cbr 500 ------- 1 1.0 6.0 24 43
+ 0.406 4 6 cbr 500 ------- 1 1.0 6.0 24 43
- 0.406 4 6 cbr 500 ------- 1 1.0 6.0 24 43
r 0.406 4 7 cbr 1000 ------- 1 2.0 7.0 16 38
r 0.406 4 6 cbr 500 ------- 1 1.0 6.0 22 39
r 0.408 2 3 cbr 1000 ------- 1 2.0 7.0 28 62
+ 0.408 3 4 cbr 1000 ------- 1 2.0 7.0 28 62
+ 0.41 1 3 cbr 500 ------- 1 1.0 6.0 36 67
- 0.41 1 3 cbr 500 ------- 1 1.0 6.0 36 67
+ 0.41 2 3 cbr 1000 ------- 1 2.0 7.0 31 68
- 0.41 2 3 cbr 1000 ------- 1 2.0 7.0 31 68
- 0.412 3 4 cbr 500 ------- 1 1.0 6.0 29 53
r 0.414 3 4 cbr 1000 ------- 1 2.0 7.0 19 44
+ 0.414 4 7 cbr 1000 ------- 1 2.0 7.0 19 44
- 0.414 4 7 cbr 1000 ------- 1 2.0 7.0 19 44
r 0.414 1 3 cbr 500 ------- 1 1.0 6.0 34 63
+ 0.414 3 4 cbr 500 ------- 1 1.0 6.0 34 63
- 0.416 3 4 cbr 1000 ------- 1 2.0 7.0 24 54
r 0.418 3 4 cbr 500 ------- 1 1.0 6.0 25 45
+ 0.418 4 6 cbr 500 ------- 1 1.0 6.0 25 45
- 0.418 4 6 cbr 500 ------- 1 1.0 6.0 25 45
r 0.418 4 7 cbr 1000 ------- 1 2.0 7.0 17 40
r 0.418 4 6 cbr 500 ------- 1 1.0 6.0 23 41
r 0.418 2 3 cbr 1000 ------- 1 2.0 7.0 29 64
+ 0.418 3 4 cbr 1000 ------- 1 2.0 7.0 29 64
+ 0.42 1 3 cbr 500 ------- 1 1.0 6.0 37 69
- 0.42 1 3 cbr 500 ------- 1 1.0 6.0 37 69
+ 0.42 2 3 cbr 1000 ------- 1 2.0 7.0 32 70
- 0.42 2 3 cbr 1000 ------- 1 2.0 7.0 32 70
r 0.424 1 3 cbr 500 ------- 1 1.0 6.0 35 65
+ 0.424 3 4 cbr 500 ------- 1 1.0 6.0 35 65
d 0.424 3 4 cbr 500 ------- 1 1.0 6.0 35 65
- 0.424 3 4 cbr 500 ------- 1 1.0 6.0 30 55
r 0.426 3 4 cbr 1000 ------- 1 2.0 7.0 20 46
+ 0.426 4 7 cbr 1000 ------- 1 2.0 7.0 20 46
- 0.426 4 7 cbr 1000 ------- 1 2.0 7.0 20 46
r 0.428 2 3 cbr 1000 ------- 1 2.0 7.0 30 66
+ 0.428 3 4 cbr 1000 ------- 1 2.0 7.0 30 66
- 0.428 3 4 cbr 1000 ------- 1 2.0 7.0 25 56
r 0.43 3 4 cbr 500 ------- 1 1.0 6.0 26 47
+ 0.43 4 6 cbr 500 ------- 1 1.0 6.0 26 47
- 0.43 4 6 cbr 500 ------- 1 1.0 6.0 26 47
r 0.43 4 7 cbr 1000 ------- 1 2.0 7.0 18 42
r 0.43 4 6 cbr 500 ------- 1 1.0 6.0 24 43
+ 0.43 1 3 cbr 500 ------- 1 1.0 6.0 38 71
- 0.43 1 3 cbr 500 ------- 1 1.0 6.0 38 71
+ 0.43 2 3 cbr 1000 ------- 1 2.0 7.0 33 72
- 0.43 2 3 cbr 1000 ------- 1 2.0 7.0 33 72
r 0.434 1 3 cbr 500 ------- 1 1.0 6.0 36 67
+ 0.434 3 4 cbr 500 ------- 1 1.0 6.0 36 67
- 0.436 3 4 cbr 500 ------- 1 1.0 6.0 31 57
r 0.438 3 4 cbr 1000 ------- 1 2.0 7.0 21 48
+ 0.438 4 7 cbr 1000 ------- 1 2.0 7.0 21 48
- 0.438 4 7 cbr 1000 ------- 1 2.0 7.0 21 48
r 0.438 2 3 cbr 1000 ------- 1 2.0 7.0 31 68
+ 0.438 3 4 cbr 1000 ------- 1 2.0 7.0 31 68
+ 0.44 1 3 cbr 500 ------- 1 1.0 6.0 39 73
- 0.44 1 3 cbr 500 ------- 1 1.0 6.0 39 73
+ 0.44 2 3 cbr 1000 ------- 1 2.0 7.0 34 74
- 0.44 2 3 cbr 1000 ------- 1 2.0 7.0 34 74
- 0.44 3 4 cbr 500 ------- 1 1.0 6.0 32 59
r 0.442 3 4 cbr 500 ------- 1 1.0 6.0 27 49
+ 0.442 4 6 cbr 500 ------- 1 1.0 6.0 27 49
- 0.442 4 6 cbr 500 ------- 1 1.0 6.0 27 49
r 0.442 4 7 cbr 1000 ------- 1 2.0 7.0 19 44
r 0.442 4 6 cbr 500 ------- 1 1.0 6.0 25 45
r 0.444 1 3 cbr 500 ------- 1 1.0 6.0 37 69
+ 0.444 3 4 cbr 500 ------- 1 1.0 6.0 37 69
- 0.444 3 4 cbr 1000 ------- 1 2.0 7.0 27 60
r 0.448 2 3 cbr 1000 ------- 1 2.0 7.0 32 70
+ 0.448 3 4 cbr 1000 ------- 1 2.0 7.0 32 70
r 0.45 3 4 cbr 1000 ------- 1 2.0 7.0 22 50
+ 0.45 4 7 cbr 1000 ------- 1 2.0 7.0 22 50
- 0.45 4 7 cbr 1000 ------- 1 2.0 7.0 22 50
+ 0.45 1 3 cbr 500 ------- 1 1.0 6.0 40 75
- 0.45 1 3 cbr 500 ------- 1 1.0 6.0 40 75
+ 0.45 2 3 cbr 1000 ------- 1 2.0 7.0 35 76
- 0.45 2 3 cbr 1000 ------- 1 2.0 7.0 35 76
- 0.452 3 4 cbr 500 ------- 1 1.0 6.0 33 61
r 0.454 3 4 cbr 500 ------- 1 1.0 6.0 28 51
+ 0.454 4 6 cbr 500 ------- 1 1.0 6.0 28 51
- 0.454 4 6 cbr 500 ------- 1 1.0 6.0 28 51
r 0.454 4 7 cbr 1000 ------- 1 2.0 7.0 20 46
r 0.454 4 6 cbr 500 ------- 1 1.0 6.0 26 47
r 0.454 1 3 cbr 500 ------- 1 1.0 6.0 38 71
+ 0.454 3 4 cbr 500 ------- 1 1.0 6.0 38 71
- 0.456 3 4 cbr 1000 ------- 1 2.0 7.0 28 62
r 0.458 2 3 cbr 1000 ------- 1 2.0 7.0 33 72
+ 0.458 3 4 cbr 1000 ------- 1 2.0 7.0 33 72
+ 0.46 1 3 cbr 500 ------- 1 1.0 6.0 41 77
- 0.46 1 3 cbr 500 ------- 1 1.0 6.0 41 77
+ 0.46 2 3 cbr 1000 ------- 1 2.0 7.0 36 78
- 0.46 2 3 cbr 1000 ------- 1 2.0 7.0 36 78
r 0.462 3 4 cbr 1000 ------- 1 2.0 7.0 23 52
+ 0.462 4 7 cbr 1000 ------- 1 2.0 7.0 23 52
- 0.462 4 7 cbr 1000 ------- 1 2.0 7.0 23 52
r 0.464 1 3 cbr 500 ------- 1 1.0 6.0 39 73
+ 0.464 3 4 cbr 500 ------- 1 1.0 6.0 39 73
d 0.464 3 4 cbr 500 ------- 1 1.0 6.0 39 73
- 0.464 3 4 cbr 500 ------- 1 1.0 6.0 34 63
r 0.466 3 4 cbr 500 ------- 1 1.0 6.0 29 53
+ 0.466 4 6 cbr 500 ------- 1 1.0 6.0 29 53
- 0.466 4 6 cbr 500 ------- 1 1.0 6.0 29 53
r 0.466 4 7 cbr 1000 ------- 1 2.0 7.0 21 48
r 0.466 4 6 cbr 500 ------- 1 1.0 6.0 27 49
r 0.468 2 3 cbr 1000 ------- 1 2.0 7.0 34 74
+ 0.468 3 4 cbr 1000 ------- 1 2.0 7.0 34 74
- 0.468 3 4 cbr 1000 ------- 1 2.0 7.0 29 64
+ 0.47 1 3 cbr 500 ------- 1 1.0 6.0 42 79
- 0.47 1 3 cbr 500 ------- 1 1.0 6.0 42 79
+ 0.47 2 3 cbr 1000 ------- 1 2.0 7.0 37 80
- 0.47 2 3 cbr 1000 ------- 1 2.0 7.0 37 80
r 0.474 3 4 cbr 1000 ------- 1 2.0 7.0 24 54
+ 0.474 4 7 cbr 1000 ------- 1 2.0 7.0 24 54
- 0.474 4 7 cbr 1000 ------- 1 2.0 7.0 24 54
r 0.474 1 3 cbr 500 ------- 1 1.0 6.0 40 75
+ 0.474 3 4 cbr 500 ------- 1 1.0 6.0 40 75
- 0.476 3 4 cbr 1000 ------- 1 2.0 7.0 30 66
r 0.478 3 4 cbr 500 ------- 1 1.0 6.0 30 55
+ 0.478 4 6 cbr 500 ------- 1 1.0 6.0 30 55
- 0.478 4 6 cbr 500 ------- 1 1.0 6.0 30 55
r 0.478 4 7 cbr 1000 ------- 1 2.0 7.0 22 50
r 0.478 4 6 cbr 500 ------- 1 1.0 6.0 28 51
r 0.478 2 3 cbr 1000 ------- 1 2.0 7.0 35 76
+ 0.478 3 4 cbr 1000 ------- 1 2.0 7.0 35 76
v 0.47999999999999998 eval {set sim_annotation {Sliding-Window Traffic starts}}
+ 0.48 1 3 cbr 500 ------- 1 1.0 6.0 43 81
- 0.48 1 3 cbr 500 ------- 1 1.0 6.0 43 81
+ 0.48 2 3 cbr 1000 ------- 1 2.0 7.0 38 82
- 0.48 2 3 cbr 1000 ------- 1 2.0 7.0 38 82
r 0.484 1 3 cbr 500 ------- 1 1.0 6.0 41 77
+ 0.484 3 4 cbr 500 ------- 1 1.0 6.0 41 77
d 0.484 3 4 cbr 500 ------- 1 1.0 6.0 41 77
- 0.484 3 4 cbr 500 ------- 1 1.0 6.0 36 67
r 0.486 3 4 cbr 1000 ------- 1 2.0 7.0 25 56
+ 0.486 4 7 cbr 1000 ------- 1 2.0 7.0 25 56
- 0.486 4 7 cbr 1000 ------- 1 2.0 7.0 25 56
r 0.488 2 3 cbr 1000 ------- 1 2.0 7.0 36 78
+ 0.488 3 4 cbr 1000 ------- 1 2.0 7.0 36 78
- 0.488 3 4 cbr 1000 ------- 1 2.0 7.0 31 68
r 0.49 3 4 cbr 500 ------- 1 1.0 6.0 31 57
+ 0.49 4 6 cbr 500 ------- 1 1.0 6.0 31 57
- 0.49 4 6 cbr 500 ------- 1 1.0 6.0 31 57
r 0.49 4 7 cbr 1000 ------- 1 2.0 7.0 23 52
r 0.49 4 6 cbr 500 ------- 1 1.0 6.0 29 53
+ 0.49 1 3 cbr 500 ------- 1 1.0 6.0 44 83
- 0.49 1 3 cbr 500 ------- 1 1.0 6.0 44 83
+ 0.49 2 3 cbr 1000 ------- 1 2.0 7.0 39 84
- 0.49 2 3 cbr 1000 ------- 1 2.0 7.0 39 84
r 0.494 3 4 cbr 500 ------- 1 1.0 6.0 32 59
+ 0.494 4 6 cbr 500 ------- 1 1.0 6.0 32 59
r 0.494 1 3 cbr 500 ------- 1 1.0 6.0 42 79
+ 0.494 3 4 cbr 500 ------- 1 1.0 6.0 42 79
- 0.494 4 6 cbr 500 ------- 1 1.0 6.0 32 59
- 0.496 3 4 cbr 500 ------- 1 1.0 6.0 37 69
r 0.498 2 3 cbr 1000 ------- 1 2.0 7.0 37 80
+ 0.498 3 4 cbr 1000 ------- 1 2.0 7.0 37 80
+ 0.5 0 3 tcp 1000 ------- 0 0.0 5.0 0 85
- 0.5 0 3 tcp 1000 ------- 0 0.0 5.0 0 85
+ 0.5 0 3 tcp 1000 ------- 0 0.0 5.0 1 86
+ 0.5 0 3 tcp 1000 ------- 0 0.0 5.0 2 87
+ 0.5 0 3 tcp 1000 ------- 0 0.0 5.0 3 88
+ 0.5 0 3 tcp 1000 ------- 0 0.0 5.0 4 89
+ 0.5 0 3 tcp 1000 ------- 0 0.0 5.0 5 90
+ 0.5 0 3 tcp 1000 ------- 0 0.0 5.0 6 91
+ 0.5 0 3 tcp 1000 ------- 0 0.0 5.0 7 92
+ 0.5 1 3 cbr 500 ------- 1 1.0 6.0 45 93
- 0.5 1 3 cbr 500 ------- 1 1.0 6.0 45 93
+ 0.5 2 3 cbr 1000 ------- 1 2.0 7.0 40 94
- 0.5 2 3 cbr 1000 ------- 1 2.0 7.0 40 94
- 0.5 3 4 cbr 1000 ------- 1 2.0 7.0 32 70
- 0.5016 0 3 tcp 1000 ------- 0 0.0 5.0 1 86
r 0.502 4 7 cbr 1000 ------- 1 2.0 7.0 24 54
r 0.502 4 6 cbr 500 ------- 1 1.0 6.0 30 55
r 0.502 3 4 cbr 1000 ------- 1 2.0 7.0 27 60
+ 0.502 4 7 cbr 1000 ------- 1 2.0 7.0 27 60
- 0.502 4 7 cbr 1000 ------- 1 2.0 7.0 27 60
- 0.5032 0 3 tcp 1000 ------- 0 0.0 5.0 2 87
r 0.504 1 3 cbr 500 ------- 1 1.0 6.0 43 81
+ 0.504 3 4 cbr 500 ------- 1 1.0 6.0 43 81
- 0.5048 0 3 tcp 1000 ------- 0 0.0 5.0 3 88
r 0.506 3 4 cbr 500 ------- 1 1.0 6.0 33 61
+ 0.506 4 6 cbr 500 ------- 1 1.0 6.0 33 61
- 0.506 4 6 cbr 500 ------- 1 1.0 6.0 33 61
- 0.5064 0 3 tcp 1000 ------- 0 0.0 5.0 4 89
- 0.508 0 3 tcp 1000 ------- 0 0.0 5.0 5 90
r 0.508 2 3 cbr 1000 ------- 1 2.0 7.0 38 82
+ 0.508 3 4 cbr 1000 ------- 1 2.0 7.0 38 82
d 0.508 3 4 cbr 1000 ------- 1 2.0 7.0 38 82
- 0.508 3 4 cbr 500 ------- 1 1.0 6.0 38 71
- 0.5096 0 3 tcp 1000 ------- 0 0.0 5.0 6 91
v 0.51000000000000001 eval {set sim_annotation {Send Packet_0 to 7 }}
+ 0.51 1 3 cbr 500 ------- 1 1.0 6.0 46 95
- 0.51 1 3 cbr 500 ------- 1 1.0 6.0 46 95
- 0.5112 0 3 tcp 1000 ------- 0 0.0 5.0 7 92
- 0.512 3 4 cbr 1000 ------- 1 2.0 7.0 33 72
r 0.514 4 7 cbr 1000 ------- 1 2.0 7.0 25 56
r 0.514 4 6 cbr 500 ------- 1 1.0 6.0 31 57
r 0.514 1 3 cbr 500 ------- 1 1.0 6.0 44 83
+ 0.514 3 4 cbr 500 ------- 1 1.0 6.0 44 83
r 0.514 3 4 cbr 1000 ------- 1 2.0 7.0 28 62