+ 0.05 1 3 cbr 500 ------- 1 1.0 6.0 0 0
- 0.05 1 3 cbr 500 ------- 1 1.0 6.0 0 0
v 0.050000000000000003 eval {set sim_annotation {CBR-1 starts}}
+ 0.06 1 3 cbr 500 ------- 1 1.0 6.0 1 1
- 0.06 1 3 cbr 500 ------- 1 1.0 6.0 1 1
+ 0.07 1 3 cbr 500 ------- 1 1.0 6.0 2 2
- 0.07 1 3 cbr 500 ------- 1 1.0 6.0 2 2
r 0.074 1 3 cbr 500 ------- 1 1.0 6.0 0 0
+ 0.074 3 4 cbr 500 ------- 1 1.0 6.0 0 0
- 0.074 3 4 cbr 500 ------- 1 1.0 6.0 0 0
+ 0.08 1 3 cbr 500 ------- 1 1.0 6.0 3 3
- 0.08 1 3 cbr 500 ------- 1 1.0 6.0 3 3
r 0.084 1 3 cbr 500 ------- 1 1.0 6.0 1 1
+ 0.084 3 4 cbr 500 ------- 1 1.0 6.0 1 1
- 0.084 3 4 cbr 500 ------- 1 1.0 6.0 1 1
+ 0.09 1 3 cbr 500 ------- 1 1.0 6.0 4 4
- 0.09 1 3 cbr 500 ------- 1 1.0 6.0 4 4
r 0.094 1 3 cbr 500 ------- 1 1.0 6.0 2 2
+ 0.094 3 4 cbr 500 ------- 1 1.0 6.0 2 2
- 0.094 3 4 cbr 500 ------- 1 1.0 6.0 2 2
+ 0.1 1 3 cbr 500 ------- 1 1.0 6.0 5 5
- 0.1 1 3 cbr 500 ------- 1 1.0 6.0 5 5
+ 0.1 2 3 cbr 1000 ------- 1 2.0 7.0 0 6
- 0.1 2 3 cbr 1000 ------- 1 2.0 7.0 0 6
v 0.10000000000000001 eval {set sim_annotation {CBR-2 starts}}
r 0.104 1 3 cbr 500 ------- 1 1.0 6.0 3 3
+ 0.104 3 4 cbr 500 ------- 1 1.0 6.0 3 3
- 0.104 3 4 cbr 500 ------- 1 1.0 6.0 3 3
+ 0.11 1 3 cbr 500 ------- 1 1.0 6.0 6 7
- 0.11 1 3 cbr 500 ------- 1 1.0 6.0 6 7
r 0.114 1 3 cbr 500 ------- 1 1.0 6.0 4 4
+ 0.114 3 4 cbr 500 ------- 1 1.0 6.0 4 4
- 0.114 3 4 cbr 500 ------- 1 1.0 6.0 4 4
+ 0.12 1 3 cbr 500 ------- 1 1.0 6.0 7 8
- 0.12 1 3 cbr 500 ------- 1 1.0 6.0 7 8
+ 0.12 2 3 cbr 1000 ------- 1 2.0 7.0 1 9
- 0.12 2 3 cbr 1000 ------- 1 2.0 7.0 1 9
r 0.124 1 3 cbr 500 ------- 1 1.0 6.0 5 5
+ 0.124 3 4 cbr 500 ------- 1 1.0 6.0 5 5
- 0.124 3 4 cbr 500 ------- 1 1.0 6.0 5 5
r 0.128 3 4 cbr 500 ------- 1 1.0 6.0 0 0
+ 0.128 4 6 cbr 500 ------- 1 1.0 6.0 0 0
- 0.128 4 6 cbr 500 ------- 1 1.0 6.0 0 0
r 0.128 2 3 cbr 1000 ------- 1 2.0 7.0 0 6
+ 0.128 3 4 cbr 1000 ------- 1 2.0 7.0 0 6
- 0.128 3 4 cbr 1000 ------- 1 2.0 7.0 0 6
+ 0.13 1 3 cbr 500 ------- 1 1.0 6.0 8 10
- 0.13 1 3 cbr 500 ------- 1 1.0 6.0 8 10
r 0.134 1 3 cbr 500 ------- 1 1.0 6.0 6 7
+ 0.134 3 4 cbr 500 ------- 1 1.0 6.0 6 7
- 0.136 3 4 cbr 500 ------- 1 1.0 6.0 6 7
r 0.138 3 4 cbr 500 ------- 1 1.0 6.0 1 1
+ 0.138 4 6 cbr 500 ------- 1 1.0 6.0 1 1
- 0.138 4 6 cbr 500 ------- 1 1.0 6.0 1 1
+ 0.14 1 3 cbr 500 ------- 1 1.0 6.0 9 11
- 0.14 1 3 cbr 500 ------- 1 1.0 6.0 9 11
+ 0.14 2 3 cbr 1000 ------- 1 2.0 7.0 2 12
- 0.14 2 3 cbr 1000 ------- 1 2.0 7.0 2 12
r 0.144 1 3 cbr 500 ------- 1 1.0 6.0 7 8
+ 0.144 3 4 cbr 500 ------- 1 1.0 6.0 7 8
- 0.144 3 4 cbr 500 ------- 1 1.0 6.0 7 8
r 0.148 3 4 cbr 500 ------- 1 1.0 6.0 2 2
+ 0.148 4 6 cbr 500 ------- 1 1.0 6.0 2 2
- 0.148 4 6 cbr 500 ------- 1 1.0 6.0 2 2
r 0.148 2 3 cbr 1000 ------- 1 2.0 7.0 1 9
+ 0.148 3 4 cbr 1000 ------- 1 2.0 7.0 1 9
- 0.148 3 4 cbr 1000 ------- 1 2.0 7.0 1 9
+ 0.15 1 3 cbr 500 ------- 1 1.0 6.0 10 13
- 0.15 1 3 cbr 500 ------- 1 1.0 6.0 10 13
r 0.152 4 6 cbr 500 ------- 1 1.0 6.0 0 0
r 0.154 1 3 cbr 500 ------- 1 1.0 6.0 8 10
+ 0.154 3 4 cbr 500 ------- 1 1.0 6.0 8 10
- 0.156 3 4 cbr 500 ------- 1 1.0 6.0 8 10
r 0.158 3 4 cbr 500 ------- 1 1.0 6.0 3 3
+ 0.158 4 6 cbr 500 ------- 1 1.0 6.0 3 3
- 0.158 4 6 cbr 500 ------- 1 1.0 6.0 3 3
+ 0.16 2 3 cbr 1000 ------- 1 2.0 7.0 3 14
- 0.16 2 3 cbr 1000 ------- 1 2.0 7.0 3 14
+ 0.16 1 3 cbr 500 ------- 1 1.0 6.0 11 15
- 0.16 1 3 cbr 500 ------- 1 1.0 6.0 11 15
r 0.162 4 6 cbr 500 ------- 1 1.0 6.0 1 1
r 0.164 1 3 cbr 500 ------- 1 1.0 6.0 9 11
+ 0.164 3 4 cbr 500 ------- 1 1.0 6.0 9 11
- 0.164 3 4 cbr 500 ------- 1 1.0 6.0 9 11
r 0.168 3 4 cbr 500 ------- 1 1.0 6.0 4 4
+ 0.168 4 6 cbr 500 ------- 1 1.0 6.0 4 4
- 0.168 4 6 cbr 500 ------- 1 1.0 6.0 4 4
r 0.168 2 3 cbr 1000 ------- 1 2.0 7.0 2 12
+ 0.168 3 4 cbr 1000 ------- 1 2.0 7.0 2 12
- 0.168 3 4 cbr 1000 ------- 1 2.0 7.0 2 12
+ 0.17 1 3 cbr 500 ------- 1 1.0 6.0 12 16
- 0.17 1 3 cbr 500 ------- 1 1.0 6.0 12 16
r 0.172 4 6 cbr 500 ------- 1 1.0 6.0 2 2
r 0.174 1 3 cbr 500 ------- 1 1.0 6.0 10 13
+ 0.174 3 4 cbr 500 ------- 1 1.0 6.0 10 13
- 0.176 3 4 cbr 500 ------- 1 1.0 6.0 10 13
r 0.178 3 4 cbr 500 ------- 1 1.0 6.0 5 5
+ 0.178 4 6 cbr 500 ------- 1 1.0 6.0 5 5
- 0.178 4 6 cbr 500 ------- 1 1.0 6.0 5 5
+ 0.18 2 3 cbr 1000 ------- 1 2.0 7.0 4 17
- 0.18 2 3 cbr 1000 ------- 1 2.0 7.0 4 17
+ 0.18 1 3 cbr 500 ------- 1 1.0 6.0 13 18
- 0.18 1 3 cbr 500 ------- 1 1.0 6.0 13 18
r 0.182 4 6 cbr 500 ------- 1 1.0 6.0 3 3
r 0.184 1 3 cbr 500 ------- 1 1.0 6.0 11 15
+ 0.184 3 4 cbr 500 ------- 1 1.0 6.0 11 15
- 0.184 3 4 cbr 500 ------- 1 1.0 6.0 11 15
r 0.186 3 4 cbr 1000 ------- 1 2.0 7.0 0 6
+ 0.186 4 7 cbr 1000 ------- 1 2.0 7.0 0 6
- 0.186 4 7 cbr 1000 ------- 1 2.0 7.0 0 6
r 0.188 2 3 cbr 1000 ------- 1 2.0 7.0 3 14
+ 0.188 3 4 cbr 1000 ------- 1 2.0 7.0 3 14
- 0.188 3 4 cbr 1000 ------- 1 2.0 7.0 3 14
r 0.19 3 4 cbr 500 ------- 1 1.0 6.0 6 7
+ 0.19 4 6 cbr 500 ------- 1 1.0 6.0 6 7
- 0.19 4 6 cbr 500 ------- 1 1.0 6.0 6 7
+ 0.19 1 3 cbr 500 ------- 1 1.0 6.0 14 19
- 0.19 1 3 cbr 500 ------- 1 1.0 6.0 14 19
r 0.192 4 6 cbr 500 ------- 1 1.0 6.0 4 4
r 0.194 1 3 cbr 500 ------- 1 1.0 6.0 12 16
+ 0.194 3 4 cbr 500 ------- 1 1.0 6.0 12 16
- 0.196 3 4 cbr 500 ------- 1 1.0 6.0 12 16
r 0.198 3 4 cbr 500 ------- 1 1.0 6.0 7 8
+ 0.198 4 6 cbr 500 ------- 1 1.0 6.0 7 8
- 0.198 4 6 cbr 500 ------- 1 1.0 6.0 7 8
+ 0.2 2 3 cbr 1000 ------- 1 2.0 7.0 5 20
- 0.2 2 3 cbr 1000 ------- 1 2.0 7.0 5 20
+ 0.2 1 3 cbr 500 ------- 1 1.0 6.0 15 21
- 0.2 1 3 cbr 500 ------- 1 1.0 6.0 15 21
r 0.202 4 6 cbr 500 ------- 1 1.0 6.0 5 5
r 0.204 1 3 cbr 500 ------- 1 1.0 6.0 13 18
+ 0.204 3 4 cbr 500 ------- 1 1.0 6.0 13 18
- 0.204 3 4 cbr 500 ------- 1 1.0 6.0 13 18
r 0.206 3 4 cbr 1000 ------- 1 2.0 7.0 1 9
+ 0.206 4 7 cbr 1000 ------- 1 2.0 7.0 1 9
- 0.206 4 7 cbr 1000 ------- 1 2.0 7.0 1 9
r 0.208 2 3 cbr 1000 ------- 1 2.0 7.0 4 17
+ 0.208 3 4 cbr 1000 ------- 1 2.0 7.0 4 17
- 0.208 3 4 cbr 1000 ------- 1 2.0 7.0 4 17
r 0.21 3 4 cbr 500 ------- 1 1.0 6.0 8 10
+ 0.21 4 6 cbr 500 ------- 1 1.0 6.0 8 10
- 0.21 4 6 cbr 500 ------- 1 1.0 6.0 8 10
+ 0.21 1 3 cbr 500 ------- 1 1.0 6.0 16 22
- 0.21 1 3 cbr 500 ------- 1 1.0 6.0 16 22
r 0.214 4 7 cbr 1000 ------- 1 2.0 7.0 0 6
r 0.214 4 6 cbr 500 ------- 1 1.0 6.0 6 7
r 0.214 1 3 cbr 500 ------- 1 1.0 6.0 14 19
+ 0.214 3 4 cbr 500 ------- 1 1.0 6.0 14 19
- 0.216 3 4 cbr 500 ------- 1 1.0 6.0 14 19
r 0.218 3 4 cbr 500 ------- 1 1.0 6.0 9 11
+ 0.218 4 6 cbr 500 ------- 1 1.0 6.0 9 11
- 0.218 4 6 cbr 500 ------- 1 1.0 6.0 9 11
+ 0.22 2 3 cbr 1000 ------- 1 2.0 7.0 6 23
- 0.22 2 3 cbr 1000 ------- 1 2.0 7.0 6 23
+ 0.22 1 3 cbr 500 ------- 1 1.0 6.0 17 24
- 0.22 1 3 cbr 500 ------- 1 1.0 6.0 17 24
r 0.222 4 6 cbr 500 ------- 1 1.0 6.0 7 8
r 0.224 1 3 cbr 500 ------- 1 1.0 6.0 15 21
+ 0.224 3 4 cbr 500 ------- 1 1.0 6.0 15 21
- 0.224 3 4 cbr 500 ------- 1 1.0 6.0 15 21
r 0.226 3 4 cbr 1000 ------- 1 2.0 7.0 2 12
+ 0.226 4 7 cbr 1000 ------- 1 2.0 7.0 2 12
- 0.226 4 7 cbr 1000 ------- 1 2.0 7.0 2 12
r 0.228 2 3 cbr 1000 ------- 1 2.0 7.0 5 20
+ 0.228 3 4 cbr 1000 ------- 1 2.0 7.0 5 20
- 0.228 3 4 cbr 1000 ------- 1 2.0 7.0 5 20
r 0.23 3 4 cbr 500 ------- 1 1.0 6.0 10 13
+ 0.23 4 6 cbr 500 ------- 1 1.0 6.0 10 13
- 0.23 4 6 cbr 500 ------- 1 1.0 6.0 10 13
+ 0.23 1 3 cbr 500 ------- 1 1.0 6.0 18 25
- 0.23 1 3 cbr 500 ------- 1 1.0 6.0 18 25
r 0.234 4 7 cbr 1000 ------- 1 2.0 7.0 1 9
r 0.234 4 6 cbr 500 ------- 1 1.0 6.0 8 10
r 0.234 1 3 cbr 500 ------- 1 1.0 6.0 16 22
+ 0.234 3 4 cbr 500 ------- 1 1.0 6.0 16 22
- 0.236 3 4 cbr 500 ------- 1 1.0 6.0 16 22
r 0.238 3 4 cbr 500 ------- 1 1.0 6.0 11 15
+ 0.238 4 6 cbr 500 ------- 1 1.0 6.0 11 15
- 0.238 4 6 cbr 500 ------- 1 1.0 6.0 11 15
+ 0.24 2 3 cbr 1000 ------- 1 2.0 7.0 7 26
- 0.24 2 3 cbr 1000 ------- 1 2.0 7.0 7 26
+ 0.24 1 3 cbr 500 ------- 1 1.0 6.0 19 27
- 0.24 1 3 cbr 500 ------- 1 1.0 6.0 19 27
r 0.242 4 6 cbr 500 ------- 1 1.0 6.0 9 11
r 0.244 1 3 cbr 500 ------- 1 1.0 6.0 17 24
+ 0.244 3 4 cbr 500 ------- 1 1.0 6.0 17 24
- 0.244 3 4 cbr 500 ------- 1 1.0 6.0 17 24
r 0.246 3 4 cbr 1000 ------- 1 2.0 7.0 3 14
+ 0.246 4 7 cbr 1000 ------- 1 2.0 7.0 3 14
- 0.246 4 7 cbr 1000 ------- 1 2.0 7.0 3 14
r 0.248 2 3 cbr 1000 ------- 1 2.0 7.0 6 23
+ 0.248 3 4 cbr 1000 ------- 1 2.0 7.0 6 23
- 0.248 3 4 cbr 1000 ------- 1 2.0 7.0 6 23
r 0.25 3 4 cbr 500 ------- 1 1.0 6.0 12 16
+ 0.25 4 6 cbr 500 ------- 1 1.0 6.0 12 16
- 0.25 4 6 cbr 500 ------- 1 1.0 6.0 12 16
+ 0.25 1 3 cbr 500 ------- 1 1.0 6.0 20 28
- 0.25 1 3 cbr 500 ------- 1 1.0 6.0 20 28
r 0.254 4 7 cbr 1000 ------- 1 2.0 7.0 2 12
r 0.254 4 6 cbr 500 ------- 1 1.0 6.0 10 13
r 0.254 1 3 cbr 500 ------- 1 1.0 6.0 18 25
+ 0.254 3 4 cbr 500 ------- 1 1.0 6.0 18 25
- 0.256 3 4 cbr 500 ------- 1 1.0 6.0 18 25
r 0.258 3 4 cbr 500 ------- 1 1.0 6.0 13 18
+ 0.258 4 6 cbr 500 ------- 1 1.0 6.0 13 18
- 0.258 4 6 cbr 500 ------- 1 1.0 6.0 13 18
+ 0.26 2 3 cbr 1000 ------- 1 2.0 7.0 8 29
- 0.26 2 3 cbr 1000 ------- 1 2.0 7.0 8 29
+ 0.26 1 3 cbr 500 ------- 1 1.0 6.0 21 30
- 0.26 1 3 cbr 500 ------- 1 1.0 6.0 21 30
r 0.262 4 6 cbr 500 ------- 1 1.0 6.0 11 15
r 0.264 1 3 cbr 500 ------- 1 1.0 6.0 19 27
+ 0.264 3 4 cbr 500 ------- 1 1.0 6.0 19 27
- 0.264 3 4 cbr 500 ------- 1 1.0 6.0 19 27
r 0.266 3 4 cbr 1000 ------- 1 2.0 7.0 4 17
+ 0.266 4 7 cbr 1000 ------- 1 2.0 7.0 4 17
- 0.266 4 7 cbr 1000 ------- 1 2.0 7.0 4 17
r 0.268 2 3 cbr 1000 ------- 1 2.0 7.0 7 26
+ 0.268 3 4 cbr 1000 ------- 1 2.0 7.0 7 26
- 0.268 3 4 cbr 1000 ------- 1 2.0 7.0 7 26
r 0.27 3 4 cbr 500 ------- 1 1.0 6.0 14 19
+ 0.27 4 6 cbr 500 ------- 1 1.0 6.0 14 19
- 0.27 4 6 cbr 500 ------- 1 1.0 6.0 14 19
+ 0.27 1 3 cbr 500 ------- 1 1.0 6.0 22 31
- 0.27 1 3 cbr 500 ------- 1 1.0 6.0 22 31
r 0.274 4 7 cbr 1000 ------- 1 2.0 7.0 3 14
r 0.274 4 6 cbr 500 ------- 1 1.0 6.0 12 16
r 0.274 1 3 cbr 500 ------- 1 1.0 6.0 20 28
+ 0.274 3 4 cbr 500 ------- 1 1.0 6.0 20 28
- 0.276 3 4 cbr 500 ------- 1 1.0 6.0 20 28
r 0.278 3 4 cbr 500 ------- 1 1.0 6.0 15 21
+ 0.278 4 6 cbr 500 ------- 1 1.0 6.0 15 21
- 0.278 4 6 cbr 500 ------- 1 1.0 6.0 15 21
+ 0.28 2 3 cbr 1000 ------- 1 2.0 7.0 9 32
- 0.28 2 3 cbr 1000 ------- 1 2.0 7.0 9 32
+ 0.28 1 3 cbr 500 ------- 1 1.0 6.0 23 33
- 0.28 1 3 cbr 500 ------- 1 1.0 6.0 23 33
r 0.282 4 6 cbr 500 ------- 1 1.0 6.0 13 18
r 0.284 1 3 cbr 500 ------- 1 1.0 6.0 21 30
+ 0.284 3 4 cbr 500 ------- 1 1.0 6.0 21 30
- 0.284 3 4 cbr 500 ------- 1 1.0 6.0 21 30
r 0.286 3 4 cbr 1000 ------- 1 2.0 7.0 5 20
+ 0.286 4 7 cbr 1000 ------- 1 2.0 7.0 5 20
- 0.286 4 7 cbr 1000 ------- 1 2.0 7.0 5 20
r 0.288 2 3 cbr 1000 ------- 1 2.0 7.0 8 29
+ 0.288 3 4 cbr 1000 ------- 1 2.0 7.0 8 29
- 0.288 3 4 cbr 1000 ------- 1 2.0 7.0 8 29
r 0.29 3 4 cbr 500 ------- 1 1.0 6.0 16 22
+ 0.29 4 6 cbr 500 ------- 1 1.0 6.0 16 22
- 0.29 4 6 cbr 500 ------- 1 1.0 6.0 16 22
+ 0.29 1 3 cbr 500 ------- 1 1.0 6.0 24 34
- 0.29 1 3 cbr 500 ------- 1 1.0 6.0 24 34
r 0.294 4 7 cbr 1000 ------- 1 2.0 7.0 4 17
r 0.294 4 6 cbr 500 ------- 1 1.0 6.0 14 19
r 0.294 1 3 cbr 500 ------- 1 1.0 6.0 22 31
+ 0.294 3 4 cbr 500 ------- 1 1.0 6.0 22 31
- 0.296 3 4 cbr 500 ------- 1 1.0 6.0 22 31
r 0.298 3 4 cbr 500 ------- 1 1.0 6.0 17 24
+ 0.298 4 6 cbr 500 ------- 1 1.0 6.0 17 24
- 0.298 4 6 cbr 500 ------- 1 1.0 6.0 17 24
+ 0.3 2 3 cbr 1000 ------- 1 2.0 7.0 10 35
- 0.3 2 3 cbr 1000 ------- 1 2.0 7.0 10 35
+ 0.3 1 3 cbr 500 ------- 1 1.0 6.0 25 36
- 0.3 1 3 cbr 500 ------- 1 1.0 6.0 25 36
r 0.302 4 6 cbr 500 ------- 1 1.0 6.0 15 21
r 0.304 1 3 cbr 500 ------- 1 1.0 6.0 23 33
+ 0.304 3 4 cbr 500 ------- 1 1.0 6.0 23 33
- 0.304 3 4 cbr 500 ------- 1 1.0 6.0 23 33
r 0.306 3 4 cbr 1000 ------- 1 2.0 7.0 6 23
+ 0.306 4 7 cbr 1000 ------- 1 2.0 7.0 6 23
- 0.306 4 7 cbr 1000 ------- 1 2.0 7.0 6 23
r 0.308 2 3 cbr 1000 ------- 1 2.0 7.0 9 32
+ 0.308 3 4 cbr 1000 ------- 1 2.0 7.0 9 32
- 0.308 3 4 cbr 1000 ------- 1 2.0 7.0 9 32
r 0.31 3 4 cbr 500 ------- 1 1.0 6.0 18 25
+ 0.31 4 6 cbr 500 ------- 1 1.0 6.0 18 25
- 0.31 4 6 cbr 500 ------- 1 1.0 6.0 18 25
+ 0.31 1 3 cbr 500 ------- 1 1.0 6.0 26 37
- 0.31 1 3 cbr 500 ------- 1 1.0 6.0 26 37
r 0.314 4 7 cbr 1000 ------- 1 2.0 7.0 5 20
r 0.314 4 6 cbr 500 ------- 1 1.0 6.0 16 22
r 0.314 1 3 cbr 500 ------- 1 1.0 6.0 24 34
+ 0.314 3 4 cbr 500 ------- 1 1.0 6.0 24 34
- 0.316 3 4 cbr 500 ------- 1 1.0 6.0 24 34
r 0.318 3 4 cbr 500 ------- 1 1.0 6.0 19 27
+ 0.318 4 6 cbr 500 ------- 1 1.0 6.0 19 27
- 0.318 4 6 cbr 500 ------- 1 1.0 6.0 19 27
+ 0.32 2 3 cbr 1000 ------- 1 2.0 7.0 11 38
- 0.32 2 3 cbr 1000 ------- 1 2.0 7.0 11 38
+ 0.32 1 3 cbr 500 ------- 1 1.0 6.0 27 39
- 0.32 1 3 cbr 500 ------- 1 1.0 6.0 27 39
r 0.322 4 6 cbr 500 ------- 1 1.0 6.0 17 24
r 0.324 1 3 cbr 500 ------- 1 1.0 6.0 25 36
+ 0.324 3 4 cbr 500 ------- 1 1.0 6.0 25 36
- 0.324 3 4 cbr 500 ------- 1 1.0 6.0 25 36
r 0.326 3 4 cbr 1000 ------- 1 2.0 7.0 7 26
+ 0.326 4 7 cbr 1000 ------- 1 2.0 7.0 7 26
- 0.326 4 7 cbr 1000 ------- 1 2.0 7.0 7 26
r 0.328 2 3 cbr 1000 ------- 1 2.0 7.0 10 35
+ 0.328 3 4 cbr 1000 ------- 1 2.0 7.0 10 35
- 0.328 3 4 cbr 1000 ------- 1 2.0 7.0 10 35
r 0.33 3 4 cbr 500 ------- 1 1.0 6.0 20 28
+ 0.33 4 6 cbr 500 ------- 1 1.0 6.0 20 28
- 0.33 4 6 cbr 500 ------- 1 1.0 6.0 20 28
+ 0.33 1 3 cbr 500 ------- 1 1.0 6.0 28 40
- 0.33 1 3 cbr 500 ------- 1 1.0 6.0 28 40
r 0.334 4 7 cbr 1000 ------- 1 2.0 7.0 6 23
r 0.334 4 6 cbr 500 ------- 1 1.0 6.0 18 25
r 0.334 1 3 cbr 500 ------- 1 1.0 6.0 26 37
+ 0.334 3 4 cbr 500 ------- 1 1.0 6.0 26 37
- 0.336 3 4 cbr 500 ------- 1 1.0 6.0 26 37
r 0.338 3 4 cbr 500 ------- 1 1.0 6.0 21 30
+ 0.338 4 6 cbr 500 ------- 1 1.0 6.0 21 30
- 0.338 4 6 cbr 500 ------- 1 1.0 6.0 21 30
+ 0.34 2 3 cbr 1000 ------- 1 2.0 7.0 12 41
- 0.34 2 3 cbr 1000 ------- 1 2.0 7.0 12 41
+ 0.34 1 3 cbr 500 ------- 1 1.0 6.0 29 42
- 0.34 1 3 cbr 500 ------- 1 1.0 6.0 29 42
r 0.342 4 6 cbr 500 ------- 1 1.0 6.0 19 27
r 0.344 1 3 cbr 500 ------- 1 1.0 6.0 27 39
+ 0.344 3 4 cbr 500 ------- 1 1.0 6.0 27 39
- 0.344 3 4 cbr 500 ------- 1 1.0 6.0 27 39
r 0.346 3 4 cbr 1000 ------- 1 2.0 7.0 8 29
+ 0.346 4 7 cbr 1000 ------- 1 2.0 7.0 8 29
- 0.346 4 7 cbr 1000 ------- 1 2.0 7.0 8 29
r 0.348 2 3 cbr 1000 ------- 1 2.0 7.0 11 38
+ 0.348 3 4 cbr 1000 ------- 1 2.0 7.0 11 38
- 0.348 3 4 cbr 1000 ------- 1 2.0 7.0 11 38
r 0.35 3 4 cbr 500 ------- 1 1.0 6.0 22 31
+ 0.35 4 6 cbr 500 ------- 1 1.0 6.0 22 31
- 0.35 4 6 cbr 500 ------- 1 1.0 6.0 22 31
+ 0.35 1 3 cbr 500 ------- 1 1.0 6.0 30 43
- 0.35 1 3 cbr 500 ------- 1 1.0 6.0 30 43
r 0.354 4 7 cbr 1000 ------- 1 2.0 7.0 7 26
r 0.354 4 6 cbr 500 ------- 1 1.0 6.0 20 28
r 0.354 1 3 cbr 500 ------- 1 1.0 6.0 28 40
+ 0.354 3 4 cbr 500 ------- 1 1.0 6.0 28 40
- 0.356 3 4 cbr 500 ------- 1 1.0 6.0 28 40
r 0.358 3 4 cbr 500 ------- 1 1.0 6.0 23 33
+ 0.358 4 6 cbr 500 ------- 1 1.0 6.0 23 33
- 0.358 4 6 cbr 500 ------- 1 1.0 6.0 23 33
+ 0.36 2 3 cbr 1000 ------- 1 2.0 7.0 13 44
- 0.36 2 3 cbr 1000 ------- 1 2.0 7.0 13 44
+ 0.36 1 3 cbr 500 ------- 1 1.0 6.0 31 45
- 0.36 1 3 cbr 500 ------- 1 1.0 6.0 31 45
r 0.362 4 6 cbr 500 ------- 1 1.0 6.0 21 30
r 0.364 1 3 cbr 500 ------- 1 1.0 6.0 29 42
+ 0.364 3 4 cbr 500 ------- 1 1.0 6.0 29 42
- 0.364 3 4 cbr 500 ------- 1 1.0 6.0 29 42
r 0.366 3 4 cbr 1000 ------- 1 2.0 7.0 9 32
+ 0.366 4 7 cbr 1000 ------- 1 2.0 7.0 9 32
- 0.366 4 7 cbr 1000 ------- 1 2.0 7.0 9 32
r 0.368 2 3 cbr 1000 ------- 1 2.0 7.0 12 41
+ 0.368 3 4 cbr 1000 ------- 1 2.0 7.0 12 41
- 0.368 3 4 cbr 1000 ------- 1 2.0 7.0 12 41
r 0.37 3 4 cbr 500 ------- 1 1.0 6.0 24 34
+ 0.37 4 6 cbr 500 ------- 1 1.0 6.0 24 34
- 0.37 4 6 cbr 500 ------- 1 1.0 6.0 24 34
+ 0.37 1 3 cbr 500 ------- 1 1.0 6.0 32 46
- 0.37 1 3 cbr 500 ------- 1 1.0 6.0 32 46
r 0.374 4 7 cbr 1000 ------- 1 2.0 7.0 8 29
r 0.374 4 6 cbr 500 ------- 1 1.0 6.0 22 31
r 0.374 1 3 cbr 500 ------- 1 1.0 6.0 30 43
+ 0.374 3 4 cbr 500 ------- 1 1.0 6.0 30 43
- 0.376 3 4 cbr 500 ------- 1 1.0 6.0 30 43
r 0.378 3 4 cbr 500 ------- 1 1.0 6.0 25 36
+ 0.378 4 6 cbr 500 ------- 1 1.0 6.0 25 36
- 0.378 4 6 cbr 500 ------- 1 1.0 6.0 25 36
+ 0.38 2 3 cbr 1000 ------- 1 2.0 7.0 14 47
- 0.38 2 3 cbr 1000 ------- 1 2.0 7.0 14 47
+ 0.38 1 3 cbr 500 ------- 1 1.0 6.0 33 48
- 0.38 1 3 cbr 500 ------- 1 1.0 6.0 33 48
r 0.382 4 6 cbr 500 ------- 1 1.0 6.0 23 33
r 0.384 1 3 cbr 500 ------- 1 1.0 6.0 31 45
+ 0.384 3 4 cbr 500 ------- 1 1.0 6.0 31 45
- 0.384 3 4 cbr 500 ------- 1 1.0 6.0 31 45
r 0.386 3 4 cbr 1000 ------- 1 2.0 7.0 10 35
+ 0.386 4 7 cbr 1000 ------- 1 2.0 7.0 10 35
- 0.386 4 7 cbr 1000 ------- 1 2.0 7.0 10 35
r 0.388 2 3 cbr 1000 ------- 1 2.0 7.0 13 44
+ 0.388 3 4 cbr 1000 ------- 1 2.0 7.0 13 44
- 0.388 3 4 cbr 1000 ------- 1 2.0 7.0 13 44
r 0.39 3 4 cbr 500 ------- 1 1.0 6.0 26 37
+ 0.39 4 6 cbr 500 ------- 1 1.0 6.0 26 37
- 0.39 4 6 cbr 500 ------- 1 1.0 6.0 26 37
+ 0.39 1 3 cbr 500 ------- 1 1.0 6.0 34 49
- 0.39 1 3 cbr 500 ------- 1 1.0 6.0 34 49
r 0.394 4 7 cbr 1000 ------- 1 2.0 7.0 9 32
r 0.394 4 6 cbr 500 ------- 1 1.0 6.0 24 34
r 0.394 1 3 cbr 500 ------- 1 1.0 6.0 32 46
+ 0.394 3 4 cbr 500 ------- 1 1.0 6.0 32 46
- 0.396 3 4 cbr 500 ------- 1 1.0 6.0 32 46
r 0.398 3 4 cbr 500 ------- 1 1.0 6.0 27 39
+ 0.398 4 6 cbr 500 ------- 1 1.0 6.0 27 39
- 0.398 4 6 cbr 500 ------- 1 1.0 6.0 27 39
+ 0.4 2 3 cbr 1000 ------- 1 2.0 7.0 15 50
- 0.4 2 3 cbr 1000 ------- 1 2.0 7.0 15 50
+ 0.4 1 3 cbr 500 ------- 1 1.0 6.0 35 51
- 0.4 1 3 cbr 500 ------- 1 1.0 6.0 35 51
r 0.402 4 6 cbr 500 ------- 1 1.0 6.0 25 36
r 0.404 1 3 cbr 500 ------- 1 1.0 6.0 33 48
+ 0.404 3 4 cbr 500 ------- 1 1.0 6.0 33 48
- 0.404 3 4 cbr 500 ------- 1 1.0 6.0 33 48
r 0.406 3 4 cbr 1000 ------- 1 2.0 7.0 11 38
+ 0.406 4 7 cbr 1000 ------- 1 2.0 7.0 11 38
- 0.406 4 7 cbr 1000 ------- 1 2.0 7.0 11 38
r 0.408 2 3 cbr 1000 ------- 1 2.0 7.0 14 47
+ 0.408 3 4 cbr 1000 ------- 1 2.0 7.0 14 47
- 0.408 3 4 cbr 1000 ------- 1 2.0 7.0 14 47
r 0.41 3 4 cbr 500 ------- 1 1.0 6.0 28 40
+ 0.41 4 6 cbr 500 ------- 1 1.0 6.0 28 40
- 0.41 4 6 cbr 500 ------- 1 1.0 6.0 28 40
+ 0.41 1 3 cbr 500 ------- 1 1.0 6.0 36 52
- 0.41 1 3 cbr 500 ------- 1 1.0 6.0 36 52
r 0.414 4 7 cbr 1000 ------- 1 2.0 7.0 10 35
r 0.414 4 6 cbr 500 ------- 1 1.0 6.0 26 37
r 0.414 1 3 cbr 500 ------- 1 1.0 6.0 34 49
+ 0.414 3 4 cbr 500 ------- 1 1.0 6.0 34 49
- 0.416 3 4 cbr 500 ------- 1 1.0 6.0 34 49
r 0.418 3 4 cbr 500 ------- 1 1.0 6.0 29 42
+ 0.418 4 6 cbr 500 ------- 1 1.0 6.0 29 42
- 0.418 4 6 cbr 500 ------- 1 1.0 6.0 29 42
+ 0.42 2 3 cbr 1000 ------- 1 2.0 7.0 16 53
- 0.42 2 3 cbr 1000 ------- 1 2.0 7.0 16 53
+ 0.42 1 3 cbr 500 ------- 1 1.0 6.0 37 54
- 0.42 1 3 cbr 500 ------- 1 1.0 6.0 37 54
r 0.422 4 6 cbr 500 ------- 1 1.0 6.0 27 39
r 0.424 1 3 cbr 500 ------- 1 1.0 6.0 35 51
+ 0.424 3 4 cbr 500 ------- 1 1.0 6.0 35 51
- 0.424 3 4 cbr 500 ------- 1 1.0 6.0 35 51
r 0.426 3 4 cbr 1000 ------- 1 2.0 7.0 12 41
+ 0.426 4 7 cbr 1000 ------- 1 2.0 7.0 12 41
- 0.426 4 7 cbr 1000 ------- 1 2.0 7.0 12 41
r 0.428 2 3 cbr 1000 ------- 1 2.0 7.0 15 50
+ 0.428 3 4 cbr 1000 ------- 1 2.0 7.0 15 50
- 0.428 3 4 cbr 1000 ------- 1 2.0 7.0 15 50
r 0.43 3 4 cbr 500 ------- 1 1.0 6.0 30 43
+ 0.43 4 6 cbr 500 ------- 1 1.0 6.0 30 43
- 0.43 4 6 cbr 500 ------- 1 1.0 6.0 30 43
+ 0.43 1 3 cbr 500 ------- 1 1.0 6.0 38 55
- 0.43 1 3 cbr 500 ------- 1 1.0 6.0 38 55
r 0.434 4 7 cbr 1000 ------- 1 2.0 7.0 11 38
r 0.434 4 6 cbr 500 ------- 1 1.0 6.0 28 40
r 0.434 1 3 cbr 500 ------- 1 1.0 6.0 36 52
+ 0.434 3 4 cbr 500 ------- 1 1.0 6.0 36 52
- 0.436 3 4 cbr 500 ------- 1 1.0 6.0 36 52
r 0.438 3 4 cbr 500 ------- 1 1.0 6.0 31 45
+ 0.438 4 6 cbr 500 ------- 1 1.0 6.0 31 45
- 0.438 4 6 cbr 500 ------- 1 1.0 6.0 31 45
+ 0.44 2 3 cbr 1000 ------- 1 2.0 7.0 17 56
- 0.44 2 3 cbr 1000 ------- 1 2.0 7.0 17 56
+ 0.44 1 3 cbr 500 ------- 1 1.0 6.0 39 57
- 0.44 1 3 cbr 500 ------- 1 1.0 6.0 39 57
r 0.442 4 6 cbr 500 ------- 1 1.0 6.0 29 42
r 0.444 1 3 cbr 500 ------- 1 1.0 6.0 37 54
+ 0.444 3 4 cbr 500 ------- 1 1.0 6.0 37 54
- 0.444 3 4 cbr 500 ------- 1 1.0 6.0 37 54
r 0.446 3 4 cbr 1000 ------- 1 2.0 7.0 13 44
+ 0.446 4 7 cbr 1000 ------- 1 2.0 7.0 13 44
- 0.446 4 7 cbr 1000 ------- 1 2.0 7.0 13 44
r 0.448 2 3 cbr 1000 ------- 1 2.0 7.0 16 53
+ 0.448 3 4 cbr 1000 ------- 1 2.0 7.0 16 53
- 0.448 3 4 cbr 1000 ------- 1 2.0 7.0 16 53
r 0.45 3 4 cbr 500 ------- 1 1.0 6.0 32 46
+ 0.45 4 6 cbr 500 ------- 1 1.0 6.0 32 46
- 0.45 4 6 cbr 500 ------- 1 1.0 6.0 32 46
+ 0.45 1 3 cbr 500 ------- 1 1.0 6.0 40 58
- 0.45 1 3 cbr 500 ------- 1 1.0 6.0 40 58
r 0.454 4 7 cbr 1000 ------- 1 2.0 7.0 12 41
r 0.454 4 6 cbr 500 ------- 1 1.0 6.0 30 43
r 0.454 1 3 cbr 500 ------- 1 1.0 6.0 38 55
+ 0.454 3 4 cbr 500 ------- 1 1.0 6.0 38 55
- 0.456 3 4 cbr 500 ------- 1 1.0 6.0 38 55
r 0.458 3 4 cbr 500 ------- 1 1.0 6.0 33 48
+ 0.458 4 6 cbr 500 ------- 1 1.0 6.0 33 48
- 0.458 4 6 cbr 500 ------- 1 1.0 6.0 33 48
+ 0.46 2 3 cbr 1000 ------- 1 2.0 7.0 18 59
- 0.46 2 3 cbr 1000 ------- 1 2.0 7.0 18 59
+ 0.46 1 3 cbr 500 ------- 1 1.0 6.0 41 60
- 0.46 1 3 cbr 500 ------- 1 1.0 6.0 41 60
r 0.462 4 6 cbr 500 ------- 1 1.0 6.0 31 45
r 0.464 1 3 cbr 500 ------- 1 1.0 6.0 39 57
+ 0.464 3 4 cbr 500 ------- 1 1.0 6.0 39 57
- 0.464 3 4 cbr 500 ------- 1 1.0 6.0 39 57
r 0.466 3 4 cbr 1000 ------- 1 2.0 7.0 14 47
+ 0.466 4 7 cbr 1000 ------- 1 2.0 7.0 14 47
- 0.466 4 7 cbr 1000 ------- 1 2.0 7.0 14 47
r 0.468 2 3 cbr 1000 ------- 1 2.0 7.0 17 56
+ 0.468 3 4 cbr 1000 ------- 1 2.0 7.0 17 56
- 0.468 3 4 cbr 1000 ------- 1 2.0 7.0 17 56
r 0.47 3 4 cbr 500 ------- 1 1.0 6.0 34 49
+ 0.47 4 6 cbr 500 ------- 1 1.0 6.0 34 49
- 0.47 4 6 cbr 500 ------- 1 1.0 6.0 34 49
+ 0.47 1 3 cbr 500 ------- 1 1.0 6.0 42 61
- 0.47 1 3 cbr 500 ------- 1 1.0 6.0 42 61
r 0.474 4 7 cbr 1000 ------- 1 2.0 7.0 13 44
r 0.474 4 6 cbr 500 ------- 1 1.0 6.0 32 46
r 0.474 1 3 cbr 500 ------- 1 1.0 6.0 40 58
+ 0.474 3 4 cbr 500 ------- 1 1.0 6.0 40 58
- 0.476 3 4 cbr 500 ------- 1 1.0 6.0 40 58
r 0.478 3 4 cbr 500 ------- 1 1.0 6.0 35 51
+ 0.478 4 6 cbr 500 ------- 1 1.0 6.0 35 51
- 0.478 4 6 cbr 500 ------- 1 1.0 6.0 35 51
+ 0.48 2 3 cbr 1000 ------- 1 2.0 7.0 19 62
- 0.48 2 3 cbr 1000 ------- 1 2.0 7.0 19 62
+ 0.48 1 3 cbr 500 ------- 1 1.0 6.0 43 63
- 0.48 1 3 cbr 500 ------- 1 1.0 6.0 43 63
r 0.482 4 6 cbr 500 ------- 1 1.0 6.0 33 48
r 0.484 1 3 cbr 500 ------- 1 1.0 6.0 41 60
+ 0.484 3 4 cbr 500 ------- 1 1.0 6.0 41 60
- 0.484 3 4 cbr 500 ------- 1 1.0 6.0 41 60
r 0.486 3 4 cbr 1000 ------- 1 2.0 7.0 15 50
+ 0.486 4 7 cbr 1000 ------- 1 2.0 7.0 15 50
- 0.486 4 7 cbr 1000 ------- 1 2.0 7.0 15 50
r 0.488 2 3 cbr 1000 ------- 1 2.0 7.0 18 59
+ 0.488 3 4 cbr 1000 ------- 1 2.0 7.0 18 59
- 0.488 3 4 cbr 1000 ------- 1 2.0 7.0 18 59
r 0.49 3 4 cbr 500 ------- 1 1.0 6.0 36 52
+ 0.49 4 6 cbr 500 ------- 1 1.0 6.0 36 52
- 0.49 4 6 cbr 500 ------- 1 1.0 6.0 36 52
+ 0.49 1 3 cbr 500 ------- 1 1.0 6.0 44 64
- 0.49 1 3 cbr 500 ------- 1 1.0 6.0 44 64
r 0.494 4 7 cbr 1000 ------- 1 2.0 7.0 14 47
r 0.494 4 6 cbr 500 ------- 1 1.0 6.0 34 49
r 0.494 1 3 cbr 500 ------- 1 1.0 6.0 42 61
+ 0.494 3 4 cbr 500 ------- 1 1.0 6.0 42 61
- 0.496 3 4 cbr 500 ------- 1 1.0 6.0 42 61
r 0.498 3 4 cbr 500 ------- 1 1.0 6.0 37 54
+ 0.498 4 6 cbr 500 ------- 1 1.0 6.0 37 54
- 0.498 4 6 cbr 500 ------- 1 1.0 6.0 37 54
+ 0.5 0 3 tcp 1000 ------- 0 0.0 5.0 0 65
- 0.5 0 3 tcp 1000 ------- 0 0.0 5.0 0 65
v 0.5 eval {set sim_annotation {TCP starts}}
+ 0.5 2 3 cbr 1000 ------- 1 2.0 7.0 20 66
- 0.5 2 3 cbr 1000 ------- 1 2.0 7.0 20 66
+ 0.5 1 3 cbr 500 ------- 1 1.0 6.0 45 67
- 0.5 1 3 cbr 500 ------- 1 1.0 6.0 45 67
r 0.502 4 6 cbr 500 ------- 1 1.0 6.0 35 51
r 0.504 1 3 cbr 500 ------- 1 1.0 6.0 43 63
+ 0.504 3 4 cbr 500 ------- 1 1.0 6.0 43 63
- 0.504 3 4 cbr 500 ------- 1 1.0 6.0 43 63
r 0.506 3 4 cbr 1000 ------- 1 2.0 7.0 16 53
+ 0.506 4 7 cbr 1000 ------- 1 2.0 7.0 16 53
- 0.506 4 7 cbr 1000 ------- 1 2.0 7.0 16 53
r 0.508 2 3 cbr 1000 ------- 1 2.0 7.0 19 62
+ 0.508 3 4 cbr 1000 ------- 1 2.0 7.0 19 62
- 0.508 3 4 cbr 1000 ------- 1 2.0 7.0 19 62
r 0.51 3 4 cbr 500 ------- 1 1.0 6.0 38 55
+ 0.51 4 6 cbr 500 ------- 1 1.0 6.0 38 55
- 0.51 4 6 cbr 500 ------- 1 1.0 6.0 38 55
+ 0.51 1 3 cbr 500 ------- 1 1.0 6.0 46 68
- 0.51 1 3 cbr 500 ------- 1 1.0 6.0 46 68
r 0.514 4 7 cbr 1000 ------- 1 2.0 7.0 15 50
r 0.514 4 6 cbr 500 ------- 1 1.0 6.0 36 52
r 0.514 1 3 cbr 500 ------- 1 1.0 6.0 44 64
+ 0.514 3 4 cbr 500 ------- 1 1.0 6.0 44 64
- 0.516 3 4 cbr 500 ------- 1 1.0 6.0 44 64
r 0.518 3 4 cbr 500 ------- 1 1.0 6.0 39 57
+ 0.518 4 6 cbr 500 ------- 1 1.0 6.0 39 57
- 0.518 4 6 cbr 500 ------- 1 1.0 6.0 39 57
+ 0.52 2 3 cbr 1000 ------- 1 2.0 7.0 21 69
- 0.52 2 3 cbr 1000 ------- 1 2.0 7.0 21 69
+ 0.52 1 3 cbr 500 ------- 1 1.0 6.0 47 70
- 0.52 1 3 cbr 500 ------- 1 1.0 6.0 47 70
r 0.5216 0 3 tcp 1000 ------- 0 0.0 5.0 0 65
+ 0.5216 3 4 tcp 1000 ------- 0 0.0 5.0 0 65
- 0.5216 3 4 tcp 1000 ------- 0 0.0 5.0 0 65
r 0.522 4 6 cbr 500 ------- 1 1.0 6.0 37 54
r 0.524 1 3 cbr 500 ------- 1 1.0 6.0 45 67
+ 0.524 3 4 cbr 500 ------- 1 1.0 6.0 45 67
r 0.526 3 4 cbr 1000 ------- 1 2.0 7.0 17 56
+ 0.526 4 7 cbr 1000 ------- 1 2.0 7.0 17 56
- 0.526 4 7 cbr 1000 ------- 1 2.0 7.0 17 56
r 0.528 2 3 cbr 1000 ------- 1 2.0 7.0 20 66
+ 0.528 3 4 cbr 1000 ------- 1 2.0 7.0 20 66
- 0.5296 3 4 cbr 500 ------- 1 1.0 6.0 45 67
r 0.53 3 4 cbr 500 ------- 1 1.0 6.0 40 58
+ 0.53 4 6 cbr 500 ------- 1 1.0 6.0 40 58
- 0.53 4 6 cbr 500 ------- 1 1.0 6.0 40 58
+ 0.53 1 3 cbr 500 ------- 1 1.0 6.0 48 71
- 0.53 1 3 cbr 500 ------- 1 1.0 6.0 48 71
- 0.5336 3 4 cbr 1000 ------- 1 2.0 7.0 20 66
r 0.534 4 7 cbr 1000 ------- 1 2.0 7.0 16 53
r 0.534 4 6 cbr 500 ------- 1 1.0 6.0 38 55
r 0.534 1 3 cbr 500 ------- 1 1.0 6.0 46 68
+ 0.534 3 4 cbr 500 ------- 1 1.0 6.0 46 68
r 0.538 3 4 cbr 500 ------- 1 1.0 6.0 41 60
+ 0.538 4 6 cbr 500 ------- 1 1.0 6.0 41 60
- 0.538 4 6 cbr 500 ------- 1 1.0 6.0 41 60
+ 0.54 2 3 cbr 1000 ------- 1 2.0 7.0 22 72
- 0.54 2 3 cbr 1000 ------- 1 2.0 7.0 22 72
+ 0.54 1 3 cbr 500 ------- 1 1.0 6.0 49 73
- 0.54 1 3 cbr 500 ------- 1 1.0 6.0 49 73
- 0.5416 3 4 cbr 500 ------- 1 1.0 6.0 46 68
r 0.542 4 6 cbr 500 ------- 1 1.0 6.0 39 57
r 0.544 1 3 cbr 500 ------- 1 1.0 6.0 47 70
+ 0.544 3 4 cbr 500 ------- 1 1.0 6.0 47 70
- 0.5456 3 4 cbr 500 ------- 1 1.0 6.0 47 70
r 0.546 3 4 cbr 1000 ------- 1 2.0 7.0 18 59
+ 0.546 4 7 cbr 1000 ------- 1 2.0 7.0 18 59
- 0.546 4 7 cbr 1000 ------- 1 2.0 7.0 18 59
r 0.548 2 3 cbr 1000 ------- 1 2.0 7.0 21 69
+ 0.548 3 4 cbr 1000 ------- 1 2.0 7.0 21 69
- 0.5496 3 4 cbr 1000 ------- 1 2.0 7.0 21 69
r 0.55 3 4 cbr 500 ------- 1 1.0 6.0 42 61
+ 0.55 4 6 cbr 500 ------- 1 1.0 6.0 42 61
- 0.55 4 6 cbr 500 ------- 1 1.0 6.0 42 61
+ 0.55 1 3 cbr 500 ------- 1 1.0 6.0 50 74
- 0.55 1 3 cbr 500 ------- 1 1.0 6.0 50 74
r 0.554 4 7 cbr 1000 ------- 1 2.0 7.0 17 56
r 0.554 4 6 cbr 500 ------- 1 1.0 6.0 40 58
r 0.554 1 3 cbr 500 ------- 1 1.0 6.0 48 71
+ 0.554 3 4 cbr 500 ------- 1 1.0 6.0 48 71
- 0.5576 3 4 cbr 500 ------- 1 1.0 6.0 48 71
r 0.558 3 4 cbr 500 ------- 1 1.0 6.0 43 63
+ 0.558 4 6 cbr 500 ------- 1 1.0 6.0 43 63
- 0.558 4 6 cbr 500 ------- 1 1.0 6.0 43 63
+ 0.56 2 3 cbr 1000 ------- 1 2.0 7.0 23 75
- 0.56 2 3 cbr 1000 ------- 1 2.0 7.0 23 75
+ 0.56 1 3 cbr 500 ------- 1 1.0 6.0 51 76
- 0.56 1 3 cbr 500 ------- 1 1.0 6.0 51 76
r 0.562 4 6 cbr 500 ------- 1 1.0 6.0 41 60
r 0.564 1 3 cbr 500 ------- 1 1.0 6.0 49 73
+ 0.564 3 4 cbr 500 ------- 1 1.0 6.0 49 73
- 0.564 3 4 cbr 500 ------- 1 1.0 6.0 49 73
r 0.566 3 4 cbr 1000 ------- 1 2.0 7.0 19 62
+ 0.566 4 7 cbr 1000 ------- 1 2.0 7.0 19 62
- 0.566 4 7 cbr 1000 ------- 1 2.0 7.0 19 62
r 0.568 2 3 cbr 1000 ------- 1 2.0 7.0 22 72
+ 0.568 3 4 cbr 1000 ------- 1 2.0 7.0 22 72
- 0.568 3 4 cbr 1000 ------- 1 2.0 7.0 22 72
r 0.57 3 4 cbr 500 ------- 1 1.0 6.0 44 64
+ 0.57 4 6 cbr 500 ------- 1 1.0 6.0 44 64
- 0.57 4 6 cbr 500 ------- 1 1.0 6.0 44 64
+ 0.57 1 3 cbr 500 ------- 1 1.0 6.0 52 77
- 0.57 1 3 cbr 500 ------- 1 1.0 6.0 52 77
r 0.574 4 7 cbr 1000 ------- 1 2.0 7.0 18 59
r 0.574 4 6 cbr 500 ------- 1 1.0 6.0 42 61
r 0.574 1 3 cbr 500 ------- 1 1.0 6.0 50 74
+ 0.574 3 4 cbr 500 ------- 1 1.0 6.0 50 74
- 0.576 3 4 cbr 500 ------- 1 1.0 6.0 50 74
r 0.5796 3 4 tcp 1000 ------- 0 0.0 5.0 0 65
+ 0.5796 4 5 tcp 1000 ------- 0 0.0 5.0 0 65
- 0.5796 4 5 tcp 1000 ------- 0 0.0 5.0 0 65
+ 0.58 2 3 cbr 1000 ------- 1 2.0 7.0 24 78
- 0.58 2 3 cbr 1000 ------- 1 2.0 7.0 24 78
+ 0.58 1 3 cbr 500 ------- 1 1.0 6.0 53 79
- 0.58 1 3 cbr 500 ------- 1 1.0 6.0 53 79
r 0.582 4 6 cbr 500 ------- 1 1.0 6.0 43 63
r 0.5836 3 4 cbr 500 ------- 1 1.0 6.0 45 67
+ 0.5836 4 6 cbr 500 ------- 1 1.0 6.0 45 67
- 0.5836 4 6 cbr 500 ------- 1 1.0 6.0 45 67
r 0.584 1 3 cbr 500 ------- 1 1.0 6.0 51 76
+ 0.584 3 4 cbr 500 ------- 1 1.0 6.0 51 76
- 0.584 3 4 cbr 500 ------- 1 1.0 6.0 51 76
r 0.588 2 3 cbr 1000 ------- 1 2.0 7.0 23 75
+ 0.588 3 4 cbr 1000 ------- 1 2.0 7.0 23 75
- 0.588 3 4 cbr 1000 ------- 1 2.0 7.0 23 75
+ 0.59 1 3 cbr 500 ------- 1 1.0 6.0 54 80
- 0.59 1 3 cbr 500 ------- 1 1.0 6.0 54 80
r 0.5916 3 4 cbr 1000 ------- 1 2.0 7.0 20 66
+ 0.5916 4 7 cbr 1000 ------- 1 2.0 7.0 20 66
- 0.5916 4 7 cbr 1000 ------- 1 2.0 7.0 20 66
r 0.594 4 7 cbr 1000 ------- 1 2.0 7.0 19 62
r 0.594 4 6 cbr 500 ------- 1 1.0 6.0 44 64
r 0.594 1 3 cbr 500 ------- 1 1.0 6.0 52 77
+ 0.594 3 4 cbr 500 ------- 1 1.0 6.0 52 77
r 0.5956 3 4 cbr 500 ------- 1 1.0 6.0 46 68
+ 0.5956 4 6 cbr 500 ------- 1 1.0 6.0 46 68
- 0.5956 4 6 cbr 500 ------- 1 1.0 6.0 46 68
- 0.596 3 4 cbr 500 ------- 1 1.0 6.0 52 77
r 0.5996 3 4 cbr 500 ------- 1 1.0 6.0 47 70
+ 0.5996 4 6 cbr 500 ------- 1 1.0 6.0 47 70
- 0.5996 4 6 cbr 500 ------- 1 1.0 6.0 47 70
+ 0.6 2 3 cbr 1000 ------- 1 2.0 7.0 25 81
- 0.6 2 3 cbr 1000 ------- 1 2.0 7.0 25 81
+ 0.6 1 3 cbr 500 ------- 1 1.0 6.0 55 82
- 0.6 1 3 cbr 500 ------- 1 1.0 6.0 55 82
r 0.6012 4 5 tcp 1000 ------- 0 0.0 5.0 0 65
+ 0.6012 5 4 ack 40 ------- 0 5.0 0.0 0 83
- 0.6012 5 4 ack 40 ------- 0 5.0 0.0 0 83
r 0.604 1 3 cbr 500 ------- 1 1.0 6.0 53 79
+ 0.604 3 4 cbr 500 ------- 1 1.0 6.0 53 79
- 0.604 3 4 cbr 500 ------- 1 1.0 6.0 53 79
r 0.6076 3 4 cbr 1000 ------- 1 2.0 7.0 21 69
+ 0.6076 4 7 cbr 1000 ------- 1 2.0 7.0 21 69
- 0.6076 4 7 cbr 1000 ------- 1 2.0 7.0 21 69