v 0 eval {set sim_annotation {TCP with multiplicative decrease}}
+ 0.1 0 1 tcp 1000 ------- 0 0.0 3.0 0 0
- 0.1 0 1 tcp 1000 ------- 0 0.0 3.0 0 0
r 0.1216 0 1 tcp 1000 ------- 0 0.0 3.0 0 0
+ 0.1216 1 2 tcp 1000 ------- 0 0.0 3.0 0 0
- 0.1216 1 2 tcp 1000 ------- 0 0.0 3.0 0 0
r 0.2376 1 2 tcp 1000 ------- 0 0.0 3.0 0 0
+ 0.2376 2 3 tcp 1000 ------- 0 0.0 3.0 0 0
- 0.2376 2 3 tcp 1000 ------- 0 0.0 3.0 0 0
r 0.2592 2 3 tcp 1000 ------- 0 0.0 3.0 0 0
+ 0.2592 3 2 ack 40 ------- 0 3.0 0.0 0 1
- 0.2592 3 2 ack 40 ------- 0 3.0 0.0 0 1
r 0.279264 3 2 ack 40 ------- 0 3.0 0.0 0 1
+ 0.279264 2 1 ack 40 ------- 0 3.0 0.0 0 1
- 0.279264 2 1 ack 40 ------- 0 3.0 0.0 0 1
r 0.379904 2 1 ack 40 ------- 0 3.0 0.0 0 1
+ 0.379904 1 0 ack 40 ------- 0 3.0 0.0 0 1
- 0.379904 1 0 ack 40 ------- 0 3.0 0.0 0 1
r 0.399968 1 0 ack 40 ------- 0 3.0 0.0 0 1
+ 0.399968 0 1 tcp 1000 ------- 0 0.0 3.0 1 2
- 0.399968 0 1 tcp 1000 ------- 0 0.0 3.0 1 2
+ 0.399968 0 1 tcp 1000 ------- 0 0.0 3.0 2 3
- 0.401568 0 1 tcp 1000 ------- 0 0.0 3.0 2 3
r 0.421568 0 1 tcp 1000 ------- 0 0.0 3.0 1 2
+ 0.421568 1 2 tcp 1000 ------- 0 0.0 3.0 1 2
- 0.421568 1 2 tcp 1000 ------- 0 0.0 3.0 1 2
r 0.423168 0 1 tcp 1000 ------- 0 0.0 3.0 2 3
+ 0.423168 1 2 tcp 1000 ------- 0 0.0 3.0 2 3
- 0.437568 1 2 tcp 1000 ------- 0 0.0 3.0 2 3
r 0.537568 1 2 tcp 1000 ------- 0 0.0 3.0 1 2
+ 0.537568 2 3 tcp 1000 ------- 0 0.0 3.0 1 2
- 0.537568 2 3 tcp 1000 ------- 0 0.0 3.0 1 2
r 0.553568 1 2 tcp 1000 ------- 0 0.0 3.0 2 3
+ 0.553568 2 3 tcp 1000 ------- 0 0.0 3.0 2 3
- 0.553568 2 3 tcp 1000 ------- 0 0.0 3.0 2 3
r 0.559168 2 3 tcp 1000 ------- 0 0.0 3.0 1 2
+ 0.559168 3 2 ack 40 ------- 0 3.0 0.0 1 4
- 0.559168 3 2 ack 40 ------- 0 3.0 0.0 1 4
r 0.575168 2 3 tcp 1000 ------- 0 0.0 3.0 2 3
+ 0.575168 3 2 ack 40 ------- 0 3.0 0.0 2 5
- 0.575168 3 2 ack 40 ------- 0 3.0 0.0 2 5
r 0.579232 3 2 ack 40 ------- 0 3.0 0.0 1 4
+ 0.579232 2 1 ack 40 ------- 0 3.0 0.0 1 4
- 0.579232 2 1 ack 40 ------- 0 3.0 0.0 1 4
r 0.595232 3 2 ack 40 ------- 0 3.0 0.0 2 5
+ 0.595232 2 1 ack 40 ------- 0 3.0 0.0 2 5
- 0.595232 2 1 ack 40 ------- 0 3.0 0.0 2 5
r 0.679872 2 1 ack 40 ------- 0 3.0 0.0 1 4
+ 0.679872 1 0 ack 40 ------- 0 3.0 0.0 1 4
- 0.679872 1 0 ack 40 ------- 0 3.0 0.0 1 4
r 0.695872 2 1 ack 40 ------- 0 3.0 0.0 2 5
+ 0.695872 1 0 ack 40 ------- 0 3.0 0.0 2 5
- 0.695872 1 0 ack 40 ------- 0 3.0 0.0 2 5
r 0.699936 1 0 ack 40 ------- 0 3.0 0.0 1 4
+ 0.699936 0 1 tcp 1000 ------- 0 0.0 3.0 3 6
- 0.699936 0 1 tcp 1000 ------- 0 0.0 3.0 3 6
+ 0.699936 0 1 tcp 1000 ------- 0 0.0 3.0 4 7
- 0.701536 0 1 tcp 1000 ------- 0 0.0 3.0 4 7
r 0.715936 1 0 ack 40 ------- 0 3.0 0.0 2 5
+ 0.715936 0 1 tcp 1000 ------- 0 0.0 3.0 5 8
- 0.715936 0 1 tcp 1000 ------- 0 0.0 3.0 5 8
+ 0.715936 0 1 tcp 1000 ------- 0 0.0 3.0 6 9
- 0.717536 0 1 tcp 1000 ------- 0 0.0 3.0 6 9
r 0.721536 0 1 tcp 1000 ------- 0 0.0 3.0 3 6
+ 0.721536 1 2 tcp 1000 ------- 0 0.0 3.0 3 6
- 0.721536 1 2 tcp 1000 ------- 0 0.0 3.0 3 6
r 0.723136 0 1 tcp 1000 ------- 0 0.0 3.0 4 7
+ 0.723136 1 2 tcp 1000 ------- 0 0.0 3.0 4 7
r 0.737536 0 1 tcp 1000 ------- 0 0.0 3.0 5 8
+ 0.737536 1 2 tcp 1000 ------- 0 0.0 3.0 5 8
- 0.737536 1 2 tcp 1000 ------- 0 0.0 3.0 4 7
r 0.739136 0 1 tcp 1000 ------- 0 0.0 3.0 6 9
+ 0.739136 1 2 tcp 1000 ------- 0 0.0 3.0 6 9
- 0.753536 1 2 tcp 1000 ------- 0 0.0 3.0 5 8
- 0.769536 1 2 tcp 1000 ------- 0 0.0 3.0 6 9
r 0.837536 1 2 tcp 1000 ------- 0 0.0 3.0 3 6
+ 0.837536 2 3 tcp 1000 ------- 0 0.0 3.0 3 6
- 0.837536 2 3 tcp 1000 ------- 0 0.0 3.0 3 6
r 0.853536 1 2 tcp 1000 ------- 0 0.0 3.0 4 7
+ 0.853536 2 3 tcp 1000 ------- 0 0.0 3.0 4 7
- 0.853536 2 3 tcp 1000 ------- 0 0.0 3.0 4 7
r 0.859136 2 3 tcp 1000 ------- 0 0.0 3.0 3 6
+ 0.859136 3 2 ack 40 ------- 0 3.0 0.0 3 10
- 0.859136 3 2 ack 40 ------- 0 3.0 0.0 3 10
r 0.869536 1 2 tcp 1000 ------- 0 0.0 3.0 5 8
+ 0.869536 2 3 tcp 1000 ------- 0 0.0 3.0 5 8
- 0.869536 2 3 tcp 1000 ------- 0 0.0 3.0 5 8
r 0.875136 2 3 tcp 1000 ------- 0 0.0 3.0 4 7
+ 0.875136 3 2 ack 40 ------- 0 3.0 0.0 4 11
- 0.875136 3 2 ack 40 ------- 0 3.0 0.0 4 11
r 0.8792 3 2 ack 40 ------- 0 3.0 0.0 3 10
+ 0.8792 2 1 ack 40 ------- 0 3.0 0.0 3 10
- 0.8792 2 1 ack 40 ------- 0 3.0 0.0 3 10
r 0.885536 1 2 tcp 1000 ------- 0 0.0 3.0 6 9
+ 0.885536 2 3 tcp 1000 ------- 0 0.0 3.0 6 9
- 0.885536 2 3 tcp 1000 ------- 0 0.0 3.0 6 9
r 0.891136 2 3 tcp 1000 ------- 0 0.0 3.0 5 8
+ 0.891136 3 2 ack 40 ------- 0 3.0 0.0 5 12
- 0.891136 3 2 ack 40 ------- 0 3.0 0.0 5 12
r 0.8952 3 2 ack 40 ------- 0 3.0 0.0 4 11
+ 0.8952 2 1 ack 40 ------- 0 3.0 0.0 4 11
- 0.8952 2 1 ack 40 ------- 0 3.0 0.0 4 11
r 0.907136 2 3 tcp 1000 ------- 0 0.0 3.0 6 9
+ 0.907136 3 2 ack 40 ------- 0 3.0 0.0 6 13
- 0.907136 3 2 ack 40 ------- 0 3.0 0.0 6 13
r 0.9112 3 2 ack 40 ------- 0 3.0 0.0 5 12
+ 0.9112 2 1 ack 40 ------- 0 3.0 0.0 5 12
- 0.9112 2 1 ack 40 ------- 0 3.0 0.0 5 12
r 0.9272 3 2 ack 40 ------- 0 3.0 0.0 6 13
+ 0.9272 2 1 ack 40 ------- 0 3.0 0.0 6 13
- 0.9272 2 1 ack 40 ------- 0 3.0 0.0 6 13
r 0.97984 2 1 ack 40 ------- 0 3.0 0.0 3 10
+ 0.97984 1 0 ack 40 ------- 0 3.0 0.0 3 10
- 0.97984 1 0 ack 40 ------- 0 3.0 0.0 3 10
r 0.99584 2 1 ack 40 ------- 0 3.0 0.0 4 11
+ 0.99584 1 0 ack 40 ------- 0 3.0 0.0 4 11
- 0.99584 1 0 ack 40 ------- 0 3.0 0.0 4 11
r 0.999904 1 0 ack 40 ------- 0 3.0 0.0 3 10
+ 0.999904 0 1 tcp 1000 ------- 0 0.0 3.0 7 14
- 0.999904 0 1 tcp 1000 ------- 0 0.0 3.0 7 14
+ 0.999904 0 1 tcp 1000 ------- 0 0.0 3.0 8 15
- 1.0015 0 1 tcp 1000 ------- 0 0.0 3.0 8 15
r 1.01184 2 1 ack 40 ------- 0 3.0 0.0 5 12
+ 1.01184 1 0 ack 40 ------- 0 3.0 0.0 5 12
- 1.01184 1 0 ack 40 ------- 0 3.0 0.0 5 12
r 1.0159 1 0 ack 40 ------- 0 3.0 0.0 4 11
+ 1.0159 0 1 tcp 1000 ------- 0 0.0 3.0 9 16
- 1.0159 0 1 tcp 1000 ------- 0 0.0 3.0 9 16
+ 1.0159 0 1 tcp 1000 ------- 0 0.0 3.0 10 17
- 1.0175 0 1 tcp 1000 ------- 0 0.0 3.0 10 17
r 1.0215 0 1 tcp 1000 ------- 0 0.0 3.0 7 14
+ 1.0215 1 2 tcp 1000 ------- 0 0.0 3.0 7 14
- 1.0215 1 2 tcp 1000 ------- 0 0.0 3.0 7 14
r 1.0231 0 1 tcp 1000 ------- 0 0.0 3.0 8 15
+ 1.0231 1 2 tcp 1000 ------- 0 0.0 3.0 8 15
r 1.02784 2 1 ack 40 ------- 0 3.0 0.0 6 13
+ 1.02784 1 0 ack 40 ------- 0 3.0 0.0 6 13
- 1.02784 1 0 ack 40 ------- 0 3.0 0.0 6 13
r 1.0319 1 0 ack 40 ------- 0 3.0 0.0 5 12
+ 1.0319 0 1 tcp 1000 ------- 0 0.0 3.0 11 18
- 1.0319 0 1 tcp 1000 ------- 0 0.0 3.0 11 18
+ 1.0319 0 1 tcp 1000 ------- 0 0.0 3.0 12 19
- 1.0335 0 1 tcp 1000 ------- 0 0.0 3.0 12 19
- 1.0375 1 2 tcp 1000 ------- 0 0.0 3.0 8 15
r 1.0375 0 1 tcp 1000 ------- 0 0.0 3.0 9 16
+ 1.0375 1 2 tcp 1000 ------- 0 0.0 3.0 9 16
r 1.0391 0 1 tcp 1000 ------- 0 0.0 3.0 10 17
+ 1.0391 1 2 tcp 1000 ------- 0 0.0 3.0 10 17
r 1.0479 1 0 ack 40 ------- 0 3.0 0.0 6 13
+ 1.0479 0 1 tcp 1000 ------- 0 0.0 3.0 13 20
- 1.0479 0 1 tcp 1000 ------- 0 0.0 3.0 13 20
+ 1.0479 0 1 tcp 1000 ------- 0 0.0 3.0 14 21
- 1.0495 0 1 tcp 1000 ------- 0 0.0 3.0 14 21
- 1.0535 1 2 tcp 1000 ------- 0 0.0 3.0 9 16
r 1.0535 0 1 tcp 1000 ------- 0 0.0 3.0 11 18
+ 1.0535 1 2 tcp 1000 ------- 0 0.0 3.0 11 18
r 1.0551 0 1 tcp 1000 ------- 0 0.0 3.0 12 19
+ 1.0551 1 2 tcp 1000 ------- 0 0.0 3.0 12 19
- 1.0695 1 2 tcp 1000 ------- 0 0.0 3.0 10 17
r 1.0695 0 1 tcp 1000 ------- 0 0.0 3.0 13 20
+ 1.0695 1 2 tcp 1000 ------- 0 0.0 3.0 13 20
r 1.0711 0 1 tcp 1000 ------- 0 0.0 3.0 14 21
+ 1.0711 1 2 tcp 1000 ------- 0 0.0 3.0 14 21
- 1.0855 1 2 tcp 1000 ------- 0 0.0 3.0 11 18
- 1.1015 1 2 tcp 1000 ------- 0 0.0 3.0 12 19
- 1.1175 1 2 tcp 1000 ------- 0 0.0 3.0 13 20
- 1.1335 1 2 tcp 1000 ------- 0 0.0 3.0 14 21
r 1.1375 1 2 tcp 1000 ------- 0 0.0 3.0 7 14
+ 1.1375 2 3 tcp 1000 ------- 0 0.0 3.0 7 14
- 1.1375 2 3 tcp 1000 ------- 0 0.0 3.0 7 14
r 1.1535 1 2 tcp 1000 ------- 0 0.0 3.0 8 15
+ 1.1535 2 3 tcp 1000 ------- 0 0.0 3.0 8 15
- 1.1535 2 3 tcp 1000 ------- 0 0.0 3.0 8 15
r 1.1591 2 3 tcp 1000 ------- 0 0.0 3.0 7 14
+ 1.1591 3 2 ack 40 ------- 0 3.0 0.0 7 22
- 1.1591 3 2 ack 40 ------- 0 3.0 0.0 7 22
r 1.1695 1 2 tcp 1000 ------- 0 0.0 3.0 9 16
+ 1.1695 2 3 tcp 1000 ------- 0 0.0 3.0 9 16
- 1.1695 2 3 tcp 1000 ------- 0 0.0 3.0 9 16
r 1.1751 2 3 tcp 1000 ------- 0 0.0 3.0 8 15
+ 1.1751 3 2 ack 40 ------- 0 3.0 0.0 8 23
- 1.1751 3 2 ack 40 ------- 0 3.0 0.0 8 23
r 1.17917 3 2 ack 40 ------- 0 3.0 0.0 7 22
+ 1.17917 2 1 ack 40 ------- 0 3.0 0.0 7 22
- 1.17917 2 1 ack 40 ------- 0 3.0 0.0 7 22
r 1.1855 1 2 tcp 1000 ------- 0 0.0 3.0 10 17
+ 1.1855 2 3 tcp 1000 ------- 0 0.0 3.0 10 17
- 1.1855 2 3 tcp 1000 ------- 0 0.0 3.0 10 17
r 1.1911 2 3 tcp 1000 ------- 0 0.0 3.0 9 16
+ 1.1911 3 2 ack 40 ------- 0 3.0 0.0 9 24
- 1.1911 3 2 ack 40 ------- 0 3.0 0.0 9 24
r 1.19517 3 2 ack 40 ------- 0 3.0 0.0 8 23
+ 1.19517 2 1 ack 40 ------- 0 3.0 0.0 8 23
- 1.19517 2 1 ack 40 ------- 0 3.0 0.0 8 23
r 1.2015 1 2 tcp 1000 ------- 0 0.0 3.0 11 18
+ 1.2015 2 3 tcp 1000 ------- 0 0.0 3.0 11 18
- 1.2015 2 3 tcp 1000 ------- 0 0.0 3.0 11 18
r 1.2071 2 3 tcp 1000 ------- 0 0.0 3.0 10 17
+ 1.2071 3 2 ack 40 ------- 0 3.0 0.0 10 25
- 1.2071 3 2 ack 40 ------- 0 3.0 0.0 10 25
r 1.21117 3 2 ack 40 ------- 0 3.0 0.0 9 24
+ 1.21117 2 1 ack 40 ------- 0 3.0 0.0 9 24
- 1.21117 2 1 ack 40 ------- 0 3.0 0.0 9 24
r 1.2175 1 2 tcp 1000 ------- 0 0.0 3.0 12 19
+ 1.2175 2 3 tcp 1000 ------- 0 0.0 3.0 12 19
- 1.2175 2 3 tcp 1000 ------- 0 0.0 3.0 12 19
r 1.2231 2 3 tcp 1000 ------- 0 0.0 3.0 11 18
+ 1.2231 3 2 ack 40 ------- 0 3.0 0.0 11 26
- 1.2231 3 2 ack 40 ------- 0 3.0 0.0 11 26
r 1.22717 3 2 ack 40 ------- 0 3.0 0.0 10 25
+ 1.22717 2 1 ack 40 ------- 0 3.0 0.0 10 25
- 1.22717 2 1 ack 40 ------- 0 3.0 0.0 10 25
r 1.2335 1 2 tcp 1000 ------- 0 0.0 3.0 13 20
+ 1.2335 2 3 tcp 1000 ------- 0 0.0 3.0 13 20
- 1.2335 2 3 tcp 1000 ------- 0 0.0 3.0 13 20
r 1.2391 2 3 tcp 1000 ------- 0 0.0 3.0 12 19
+ 1.2391 3 2 ack 40 ------- 0 3.0 0.0 12 27
- 1.2391 3 2 ack 40 ------- 0 3.0 0.0 12 27
r 1.24317 3 2 ack 40 ------- 0 3.0 0.0 11 26
+ 1.24317 2 1 ack 40 ------- 0 3.0 0.0 11 26
- 1.24317 2 1 ack 40 ------- 0 3.0 0.0 11 26
r 1.2495 1 2 tcp 1000 ------- 0 0.0 3.0 14 21
+ 1.2495 2 3 tcp 1000 ------- 0 0.0 3.0 14 21
- 1.2495 2 3 tcp 1000 ------- 0 0.0 3.0 14 21
r 1.2551 2 3 tcp 1000 ------- 0 0.0 3.0 13 20
+ 1.2551 3 2 ack 40 ------- 0 3.0 0.0 13 28
- 1.2551 3 2 ack 40 ------- 0 3.0 0.0 13 28
r 1.25917 3 2 ack 40 ------- 0 3.0 0.0 12 27
+ 1.25917 2 1 ack 40 ------- 0 3.0 0.0 12 27
- 1.25917 2 1 ack 40 ------- 0 3.0 0.0 12 27
r 1.2711 2 3 tcp 1000 ------- 0 0.0 3.0 14 21
+ 1.2711 3 2 ack 40 ------- 0 3.0 0.0 14 29
- 1.2711 3 2 ack 40 ------- 0 3.0 0.0 14 29
r 1.27517 3 2 ack 40 ------- 0 3.0 0.0 13 28
+ 1.27517 2 1 ack 40 ------- 0 3.0 0.0 13 28
- 1.27517 2 1 ack 40 ------- 0 3.0 0.0 13 28
r 1.27981 2 1 ack 40 ------- 0 3.0 0.0 7 22
+ 1.27981 1 0 ack 40 ------- 0 3.0 0.0 7 22
- 1.27981 1 0 ack 40 ------- 0 3.0 0.0 7 22
r 1.29117 3 2 ack 40 ------- 0 3.0 0.0 14 29
+ 1.29117 2 1 ack 40 ------- 0 3.0 0.0 14 29
- 1.29117 2 1 ack 40 ------- 0 3.0 0.0 14 29
r 1.29581 2 1 ack 40 ------- 0 3.0 0.0 8 23
+ 1.29581 1 0 ack 40 ------- 0 3.0 0.0 8 23
- 1.29581 1 0 ack 40 ------- 0 3.0 0.0 8 23
r 1.29987 1 0 ack 40 ------- 0 3.0 0.0 7 22
+ 1.29987 0 1 tcp 1000 ------- 0 0.0 3.0 15 30
- 1.29987 0 1 tcp 1000 ------- 0 0.0 3.0 15 30
+ 1.29987 0 1 tcp 1000 ------- 0 0.0 3.0 16 31
- 1.30147 0 1 tcp 1000 ------- 0 0.0 3.0 16 31
r 1.31181 2 1 ack 40 ------- 0 3.0 0.0 9 24
+ 1.31181 1 0 ack 40 ------- 0 3.0 0.0 9 24
- 1.31181 1 0 ack 40 ------- 0 3.0 0.0 9 24
r 1.31587 1 0 ack 40 ------- 0 3.0 0.0 8 23
+ 1.31587 0 1 tcp 1000 ------- 0 0.0 3.0 17 32
- 1.31587 0 1 tcp 1000 ------- 0 0.0 3.0 17 32
+ 1.31587 0 1 tcp 1000 ------- 0 0.0 3.0 18 33
- 1.31747 0 1 tcp 1000 ------- 0 0.0 3.0 18 33
r 1.32147 0 1 tcp 1000 ------- 0 0.0 3.0 15 30
+ 1.32147 1 2 tcp 1000 ------- 0 0.0 3.0 15 30
- 1.32147 1 2 tcp 1000 ------- 0 0.0 3.0 15 30
r 1.32307 0 1 tcp 1000 ------- 0 0.0 3.0 16 31
+ 1.32307 1 2 tcp 1000 ------- 0 0.0 3.0 16 31
r 1.32781 2 1 ack 40 ------- 0 3.0 0.0 10 25
+ 1.32781 1 0 ack 40 ------- 0 3.0 0.0 10 25
- 1.32781 1 0 ack 40 ------- 0 3.0 0.0 10 25
r 1.33187 1 0 ack 40 ------- 0 3.0 0.0 9 24
+ 1.33187 0 1 tcp 1000 ------- 0 0.0 3.0 19 34
- 1.33187 0 1 tcp 1000 ------- 0 0.0 3.0 19 34
+ 1.33187 0 1 tcp 1000 ------- 0 0.0 3.0 20 35
- 1.33347 0 1 tcp 1000 ------- 0 0.0 3.0 20 35
r 1.33747 0 1 tcp 1000 ------- 0 0.0 3.0 17 32
+ 1.33747 1 2 tcp 1000 ------- 0 0.0 3.0 17 32
- 1.33747 1 2 tcp 1000 ------- 0 0.0 3.0 16 31
r 1.33907 0 1 tcp 1000 ------- 0 0.0 3.0 18 33
+ 1.33907 1 2 tcp 1000 ------- 0 0.0 3.0 18 33
r 1.34381 2 1 ack 40 ------- 0 3.0 0.0 11 26
+ 1.34381 1 0 ack 40 ------- 0 3.0 0.0 11 26
- 1.34381 1 0 ack 40 ------- 0 3.0 0.0 11 26
r 1.34787 1 0 ack 40 ------- 0 3.0 0.0 10 25
+ 1.34787 0 1 tcp 1000 ------- 0 0.0 3.0 21 36
- 1.34787 0 1 tcp 1000 ------- 0 0.0 3.0 21 36
+ 1.34787 0 1 tcp 1000 ------- 0 0.0 3.0 22 37
- 1.34947 0 1 tcp 1000 ------- 0 0.0 3.0 22 37
r 1.35347 0 1 tcp 1000 ------- 0 0.0 3.0 19 34
+ 1.35347 1 2 tcp 1000 ------- 0 0.0 3.0 19 34
- 1.35347 1 2 tcp 1000 ------- 0 0.0 3.0 17 32
r 1.35507 0 1 tcp 1000 ------- 0 0.0 3.0 20 35
+ 1.35507 1 2 tcp 1000 ------- 0 0.0 3.0 20 35
r 1.35981 2 1 ack 40 ------- 0 3.0 0.0 12 27
+ 1.35981 1 0 ack 40 ------- 0 3.0 0.0 12 27
- 1.35981 1 0 ack 40 ------- 0 3.0 0.0 12 27
r 1.36387 1 0 ack 40 ------- 0 3.0 0.0 11 26
+ 1.36387 0 1 tcp 1000 ------- 0 0.0 3.0 23 38
- 1.36387 0 1 tcp 1000 ------- 0 0.0 3.0 23 38
+ 1.36387 0 1 tcp 1000 ------- 0 0.0 3.0 24 39
- 1.36547 0 1 tcp 1000 ------- 0 0.0 3.0 24 39
r 1.36947 0 1 tcp 1000 ------- 0 0.0 3.0 21 36
+ 1.36947 1 2 tcp 1000 ------- 0 0.0 3.0 21 36
- 1.36947 1 2 tcp 1000 ------- 0 0.0 3.0 18 33
r 1.37107 0 1 tcp 1000 ------- 0 0.0 3.0 22 37
+ 1.37107 1 2 tcp 1000 ------- 0 0.0 3.0 22 37
r 1.37581 2 1 ack 40 ------- 0 3.0 0.0 13 28
+ 1.37581 1 0 ack 40 ------- 0 3.0 0.0 13 28
- 1.37581 1 0 ack 40 ------- 0 3.0 0.0 13 28
r 1.37987 1 0 ack 40 ------- 0 3.0 0.0 12 27
+ 1.37987 0 1 tcp 1000 ------- 0 0.0 3.0 25 40
- 1.37987 0 1 tcp 1000 ------- 0 0.0 3.0 25 40
+ 1.37987 0 1 tcp 1000 ------- 0 0.0 3.0 26 41
- 1.38147 0 1 tcp 1000 ------- 0 0.0 3.0 26 41
r 1.38547 0 1 tcp 1000 ------- 0 0.0 3.0 23 38
+ 1.38547 1 2 tcp 1000 ------- 0 0.0 3.0 23 38
d 1.38547 1 2 tcp 1000 ------- 0 0.0 3.0 23 38
- 1.38547 1 2 tcp 1000 ------- 0 0.0 3.0 19 34
r 1.38707 0 1 tcp 1000 ------- 0 0.0 3.0 24 39
+ 1.38707 1 2 tcp 1000 ------- 0 0.0 3.0 24 39
r 1.39181 2 1 ack 40 ------- 0 3.0 0.0 14 29
+ 1.39181 1 0 ack 40 ------- 0 3.0 0.0 14 29
- 1.39181 1 0 ack 40 ------- 0 3.0 0.0 14 29
r 1.39587 1 0 ack 40 ------- 0 3.0 0.0 13 28
+ 1.39587 0 1 tcp 1000 ------- 0 0.0 3.0 27 42
- 1.39587 0 1 tcp 1000 ------- 0 0.0 3.0 27 42
+ 1.39587 0 1 tcp 1000 ------- 0 0.0 3.0 28 43
- 1.39747 0 1 tcp 1000 ------- 0 0.0 3.0 28 43
r 1.40147 0 1 tcp 1000 ------- 0 0.0 3.0 25 40
+ 1.40147 1 2 tcp 1000 ------- 0 0.0 3.0 25 40
d 1.40147 1 2 tcp 1000 ------- 0 0.0 3.0 25 40
- 1.40147 1 2 tcp 1000 ------- 0 0.0 3.0 20 35
r 1.40307 0 1 tcp 1000 ------- 0 0.0 3.0 26 41
+ 1.40307 1 2 tcp 1000 ------- 0 0.0 3.0 26 41
r 1.41187 1 0 ack 40 ------- 0 3.0 0.0 14 29
+ 1.41187 0 1 tcp 1000 ------- 0 0.0 3.0 29 44
- 1.41187 0 1 tcp 1000 ------- 0 0.0 3.0 29 44
+ 1.41187 0 1 tcp 1000 ------- 0 0.0 3.0 30 45
- 1.41347 0 1 tcp 1000 ------- 0 0.0 3.0 30 45
r 1.41747 0 1 tcp 1000 ------- 0 0.0 3.0 27 42
+ 1.41747 1 2 tcp 1000 ------- 0 0.0 3.0 27 42
d 1.41747 1 2 tcp 1000 ------- 0 0.0 3.0 27 42
- 1.41747 1 2 tcp 1000 ------- 0 0.0 3.0 21 36
r 1.41907 0 1 tcp 1000 ------- 0 0.0 3.0 28 43
+ 1.41907 1 2 tcp 1000 ------- 0 0.0 3.0 28 43
r 1.43347 0 1 tcp 1000 ------- 0 0.0 3.0 29 44
+ 1.43347 1 2 tcp 1000 ------- 0 0.0 3.0 29 44
d 1.43347 1 2 tcp 1000 ------- 0 0.0 3.0 29 44
- 1.43347 1 2 tcp 1000 ------- 0 0.0 3.0 22 37
r 1.43507 0 1 tcp 1000 ------- 0 0.0 3.0 30 45
+ 1.43507 1 2 tcp 1000 ------- 0 0.0 3.0 30 45
r 1.43747 1 2 tcp 1000 ------- 0 0.0 3.0 15 30
+ 1.43747 2 3 tcp 1000 ------- 0 0.0 3.0 15 30
- 1.43747 2 3 tcp 1000 ------- 0 0.0 3.0 15 30
- 1.44947 1 2 tcp 1000 ------- 0 0.0 3.0 24 39
r 1.45347 1 2 tcp 1000 ------- 0 0.0 3.0 16 31
+ 1.45347 2 3 tcp 1000 ------- 0 0.0 3.0 16 31
- 1.45347 2 3 tcp 1000 ------- 0 0.0 3.0 16 31
r 1.45907 2 3 tcp 1000 ------- 0 0.0 3.0 15 30
+ 1.45907 3 2 ack 40 ------- 0 3.0 0.0 15 46
- 1.45907 3 2 ack 40 ------- 0 3.0 0.0 15 46
- 1.46547 1 2 tcp 1000 ------- 0 0.0 3.0 26 41
r 1.46947 1 2 tcp 1000 ------- 0 0.0 3.0 17 32
+ 1.46947 2 3 tcp 1000 ------- 0 0.0 3.0 17 32
- 1.46947 2 3 tcp 1000 ------- 0 0.0 3.0 17 32
r 1.47507 2 3 tcp 1000 ------- 0 0.0 3.0 16 31
+ 1.47507 3 2 ack 40 ------- 0 3.0 0.0 16 47
- 1.47507 3 2 ack 40 ------- 0 3.0 0.0 16 47
r 1.47914 3 2 ack 40 ------- 0 3.0 0.0 15 46
+ 1.47914 2 1 ack 40 ------- 0 3.0 0.0 15 46
- 1.47914 2 1 ack 40 ------- 0 3.0 0.0 15 46
- 1.48147 1 2 tcp 1000 ------- 0 0.0 3.0 28 43
r 1.48547 1 2 tcp 1000 ------- 0 0.0 3.0 18 33
+ 1.48547 2 3 tcp 1000 ------- 0 0.0 3.0 18 33
- 1.48547 2 3 tcp 1000 ------- 0 0.0 3.0 18 33
r 1.49107 2 3 tcp 1000 ------- 0 0.0 3.0 17 32
+ 1.49107 3 2 ack 40 ------- 0 3.0 0.0 17 48
- 1.49107 3 2 ack 40 ------- 0 3.0 0.0 17 48
r 1.49514 3 2 ack 40 ------- 0 3.0 0.0 16 47
+ 1.49514 2 1 ack 40 ------- 0 3.0 0.0 16 47
- 1.49514 2 1 ack 40 ------- 0 3.0 0.0 16 47
- 1.49747 1 2 tcp 1000 ------- 0 0.0 3.0 30 45
r 1.50147 1 2 tcp 1000 ------- 0 0.0 3.0 19 34
+ 1.50147 2 3 tcp 1000 ------- 0 0.0 3.0 19 34
- 1.50147 2 3 tcp 1000 ------- 0 0.0 3.0 19 34
r 1.50707 2 3 tcp 1000 ------- 0 0.0 3.0 18 33
+ 1.50707 3 2 ack 40 ------- 0 3.0 0.0 18 49
- 1.50707 3 2 ack 40 ------- 0 3.0 0.0 18 49
r 1.51114 3 2 ack 40 ------- 0 3.0 0.0 17 48
+ 1.51114 2 1 ack 40 ------- 0 3.0 0.0 17 48
- 1.51114 2 1 ack 40 ------- 0 3.0 0.0 17 48
r 1.51747 1 2 tcp 1000 ------- 0 0.0 3.0 20 35
+ 1.51747 2 3 tcp 1000 ------- 0 0.0 3.0 20 35
- 1.51747 2 3 tcp 1000 ------- 0 0.0 3.0 20 35
r 1.52307 2 3 tcp 1000 ------- 0 0.0 3.0 19 34
+ 1.52307 3 2 ack 40 ------- 0 3.0 0.0 19 50
- 1.52307 3 2 ack 40 ------- 0 3.0 0.0 19 50
r 1.52714 3 2 ack 40 ------- 0 3.0 0.0 18 49
+ 1.52714 2 1 ack 40 ------- 0 3.0 0.0 18 49
- 1.52714 2 1 ack 40 ------- 0 3.0 0.0 18 49
r 1.53347 1 2 tcp 1000 ------- 0 0.0 3.0 21 36
+ 1.53347 2 3 tcp 1000 ------- 0 0.0 3.0 21 36
- 1.53347 2 3 tcp 1000 ------- 0 0.0 3.0 21 36
r 1.53907 2 3 tcp 1000 ------- 0 0.0 3.0 20 35
+ 1.53907 3 2 ack 40 ------- 0 3.0 0.0 20 51
- 1.53907 3 2 ack 40 ------- 0 3.0 0.0 20 51
r 1.54314 3 2 ack 40 ------- 0 3.0 0.0 19 50
+ 1.54314 2 1 ack 40 ------- 0 3.0 0.0 19 50
- 1.54314 2 1 ack 40 ------- 0 3.0 0.0 19 50
r 1.54947 1 2 tcp 1000 ------- 0 0.0 3.0 22 37
+ 1.54947 2 3 tcp 1000 ------- 0 0.0 3.0 22 37
- 1.54947 2 3 tcp 1000 ------- 0 0.0 3.0 22 37
r 1.55507 2 3 tcp 1000 ------- 0 0.0 3.0 21 36
+ 1.55507 3 2 ack 40 ------- 0 3.0 0.0 21 52
- 1.55507 3 2 ack 40 ------- 0 3.0 0.0 21 52
r 1.55914 3 2 ack 40 ------- 0 3.0 0.0 20 51
+ 1.55914 2 1 ack 40 ------- 0 3.0 0.0 20 51
- 1.55914 2 1 ack 40 ------- 0 3.0 0.0 20 51
r 1.56547 1 2 tcp 1000 ------- 0 0.0 3.0 24 39
+ 1.56547 2 3 tcp 1000 ------- 0 0.0 3.0 24 39
- 1.56547 2 3 tcp 1000 ------- 0 0.0 3.0 24 39
r 1.57107 2 3 tcp 1000 ------- 0 0.0 3.0 22 37
+ 1.57107 3 2 ack 40 ------- 0 3.0 0.0 22 53
- 1.57107 3 2 ack 40 ------- 0 3.0 0.0 22 53
r 1.57514 3 2 ack 40 ------- 0 3.0 0.0 21 52
+ 1.57514 2 1 ack 40 ------- 0 3.0 0.0 21 52
- 1.57514 2 1 ack 40 ------- 0 3.0 0.0 21 52
r 1.57978 2 1 ack 40 ------- 0 3.0 0.0 15 46
+ 1.57978 1 0 ack 40 ------- 0 3.0 0.0 15 46
- 1.57978 1 0 ack 40 ------- 0 3.0 0.0 15 46
r 1.58147 1 2 tcp 1000 ------- 0 0.0 3.0 26 41
+ 1.58147 2 3 tcp 1000 ------- 0 0.0 3.0 26 41
- 1.58147 2 3 tcp 1000 ------- 0 0.0 3.0 26 41
r 1.58707 2 3 tcp 1000 ------- 0 0.0 3.0 24 39
+ 1.58707 3 2 ack 40 ------- 0 3.0 0.0 22 54
- 1.58707 3 2 ack 40 ------- 0 3.0 0.0 22 54
r 1.59114 3 2 ack 40 ------- 0 3.0 0.0 22 53
+ 1.59114 2 1 ack 40 ------- 0 3.0 0.0 22 53
- 1.59114 2 1 ack 40 ------- 0 3.0 0.0 22 53
r 1.59578 2 1 ack 40 ------- 0 3.0 0.0 16 47
+ 1.59578 1 0 ack 40 ------- 0 3.0 0.0 16 47
- 1.59578 1 0 ack 40 ------- 0 3.0 0.0 16 47
r 1.59747 1 2 tcp 1000 ------- 0 0.0 3.0 28 43
+ 1.59747 2 3 tcp 1000 ------- 0 0.0 3.0 28 43
- 1.59747 2 3 tcp 1000 ------- 0 0.0 3.0 28 43
r 1.59984 1 0 ack 40 ------- 0 3.0 0.0 15 46
+ 1.59984 0 1 tcp 1000 ------- 0 0.0 3.0 31 55
- 1.59984 0 1 tcp 1000 ------- 0 0.0 3.0 31 55
+ 1.59984 0 1 tcp 1000 ------- 0 0.0 3.0 32 56
- 1.60144 0 1 tcp 1000 ------- 0 0.0 3.0 32 56
r 1.60307 2 3 tcp 1000 ------- 0 0.0 3.0 26 41
+ 1.60307 3 2 ack 40 ------- 0 3.0 0.0 22 57
- 1.60307 3 2 ack 40 ------- 0 3.0 0.0 22 57
r 1.60714 3 2 ack 40 ------- 0 3.0 0.0 22 54
+ 1.60714 2 1 ack 40 ------- 0 3.0 0.0 22 54
- 1.60714 2 1 ack 40 ------- 0 3.0 0.0 22 54
r 1.61178 2 1 ack 40 ------- 0 3.0 0.0 17 48
+ 1.61178 1 0 ack 40 ------- 0 3.0 0.0 17 48
- 1.61178 1 0 ack 40 ------- 0 3.0 0.0 17 48
r 1.61347 1 2 tcp 1000 ------- 0 0.0 3.0 30 45
+ 1.61347 2 3 tcp 1000 ------- 0 0.0 3.0 30 45
- 1.61347 2 3 tcp 1000 ------- 0 0.0 3.0 30 45
r 1.61584 1 0 ack 40 ------- 0 3.0 0.0 16 47
+ 1.61584 0 1 tcp 1000 ------- 0 0.0 3.0 33 58
- 1.61584 0 1 tcp 1000 ------- 0 0.0 3.0 33 58
+ 1.61584 0 1 tcp 1000 ------- 0 0.0 3.0 34 59
- 1.61744 0 1 tcp 1000 ------- 0 0.0 3.0 34 59
r 1.61907 2 3 tcp 1000 ------- 0 0.0 3.0 28 43
+ 1.61907 3 2 ack 40 ------- 0 3.0 0.0 22 60
- 1.61907 3 2 ack 40 ------- 0 3.0 0.0 22 60
r 1.62144 0 1 tcp 1000 ------- 0 0.0 3.0 31 55
+ 1.62144 1 2 tcp 1000 ------- 0 0.0 3.0 31 55
- 1.62144 1 2 tcp 1000 ------- 0 0.0 3.0 31 55
r 1.62304 0 1 tcp 1000 ------- 0 0.0 3.0 32 56
+ 1.62304 1 2 tcp 1000 ------- 0 0.0 3.0 32 56
r 1.62314 3 2 ack 40 ------- 0 3.0 0.0 22 57
+ 1.62314 2 1 ack 40 ------- 0 3.0 0.0 22 57
- 1.62314 2 1 ack 40 ------- 0 3.0 0.0 22 57
r 1.62778 2 1 ack 40 ------- 0 3.0 0.0 18 49
+ 1.62778 1 0 ack 40 ------- 0 3.0 0.0 18 49
- 1.62778 1 0 ack 40 ------- 0 3.0 0.0 18 49
r 1.63184 1 0 ack 40 ------- 0 3.0 0.0 17 48
+ 1.63184 0 1 tcp 1000 ------- 0 0.0 3.0 35 61
- 1.63184 0 1 tcp 1000 ------- 0 0.0 3.0 35 61
+ 1.63184 0 1 tcp 1000 ------- 0 0.0 3.0 36 62
- 1.63344 0 1 tcp 1000 ------- 0 0.0 3.0 36 62
r 1.63507 2 3 tcp 1000 ------- 0 0.0 3.0 30 45
+ 1.63507 3 2 ack 40 ------- 0 3.0 0.0 22 63
- 1.63507 3 2 ack 40 ------- 0 3.0 0.0 22 63
r 1.63744 0 1 tcp 1000 ------- 0 0.0 3.0 33 58
+ 1.63744 1 2 tcp 1000 ------- 0 0.0 3.0 33 58
- 1.63744 1 2 tcp 1000 ------- 0 0.0 3.0 32 56
r 1.63904 0 1 tcp 1000 ------- 0 0.0 3.0 34 59
+ 1.63904 1 2 tcp 1000 ------- 0 0.0 3.0 34 59
r 1.63914 3 2 ack 40 ------- 0 3.0 0.0 22 60
+ 1.63914 2 1 ack 40 ------- 0 3.0 0.0 22 60
- 1.63914 2 1 ack 40 ------- 0 3.0 0.0 22 60
r 1.64378 2 1 ack 40 ------- 0 3.0 0.0 19 50
+ 1.64378 1 0 ack 40 ------- 0 3.0 0.0 19 50
- 1.64378 1 0 ack 40 ------- 0 3.0 0.0 19 50
r 1.64784 1 0 ack 40 ------- 0 3.0 0.0 18 49
+ 1.64784 0 1 tcp 1000 ------- 0 0.0 3.0 37 64
- 1.64784 0 1 tcp 1000 ------- 0 0.0 3.0 37 64
+ 1.64784 0 1 tcp 1000 ------- 0 0.0 3.0 38 65
- 1.64944 0 1 tcp 1000 ------- 0 0.0 3.0 38 65
r 1.65344 0 1 tcp 1000 ------- 0 0.0 3.0 35 61
+ 1.65344 1 2 tcp 1000 ------- 0 0.0 3.0 35 61
- 1.65344 1 2 tcp 1000 ------- 0 0.0 3.0 33 58
r 1.65504 0 1 tcp 1000 ------- 0 0.0 3.0 36 62
+ 1.65504 1 2 tcp 1000 ------- 0 0.0 3.0 36 62
r 1.65514 3 2 ack 40 ------- 0 3.0 0.0 22 63
+ 1.65514 2 1 ack 40 ------- 0 3.0 0.0 22 63
- 1.65514 2 1 ack 40 ------- 0 3.0 0.0 22 63
r 1.65978 2 1 ack 40 ------- 0 3.0 0.0 20 51
+ 1.65978 1 0 ack 40 ------- 0 3.0 0.0 20 51
- 1.65978 1 0 ack 40 ------- 0 3.0 0.0 20 51
r 1.66384 1 0 ack 40 ------- 0 3.0 0.0 19 50
+ 1.66384 0 1 tcp 1000 ------- 0 0.0 3.0 39 66
- 1.66384 0 1 tcp 1000 ------- 0 0.0 3.0 39 66
r 1.66944 0 1 tcp 1000 ------- 0 0.0 3.0 37 64
+ 1.66944 1 2 tcp 1000 ------- 0 0.0 3.0 37 64
- 1.66944 1 2 tcp 1000 ------- 0 0.0 3.0 34 59
r 1.67104 0 1 tcp 1000 ------- 0 0.0 3.0 38 65
+ 1.67104 1 2 tcp 1000 ------- 0 0.0 3.0 38 65
r 1.67578 2 1 ack 40 ------- 0 3.0 0.0 21 52
+ 1.67578 1 0 ack 40 ------- 0 3.0 0.0 21 52
- 1.67578 1 0 ack 40 ------- 0 3.0 0.0 21 52
r 1.67984 1 0 ack 40 ------- 0 3.0 0.0 20 51
+ 1.67984 0 1 tcp 1000 ------- 0 0.0 3.0 40 67
- 1.67984 0 1 tcp 1000 ------- 0 0.0 3.0 40 67
r 1.68544 0 1 tcp 1000 ------- 0 0.0 3.0 39 66
+ 1.68544 1 2 tcp 1000 ------- 0 0.0 3.0 39 66
d 1.68544 1 2 tcp 1000 ------- 0 0.0 3.0 39 66
- 1.68544 1 2 tcp 1000 ------- 0 0.0 3.0 35 61
r 1.69178 2 1 ack 40 ------- 0 3.0 0.0 22 53
+ 1.69178 1 0 ack 40 ------- 0 3.0 0.0 22 53
- 1.69178 1 0 ack 40 ------- 0 3.0 0.0 22 53
r 1.69584 1 0 ack 40 ------- 0 3.0 0.0 21 52
+ 1.69584 0 1 tcp 1000 ------- 0 0.0 3.0 41 68
- 1.69584 0 1 tcp 1000 ------- 0 0.0 3.0 41 68
r 1.70144 0 1 tcp 1000 ------- 0 0.0 3.0 40 67
+ 1.70144 1 2 tcp 1000 ------- 0 0.0 3.0 40 67
- 1.70144 1 2 tcp 1000 ------- 0 0.0 3.0 36 62
r 1.70778 2 1 ack 40 ------- 0 3.0 0.0 22 54
+ 1.70778 1 0 ack 40 ------- 0 3.0 0.0 22 54
- 1.70778 1 0 ack 40 ------- 0 3.0 0.0 22 54
r 1.71184 1 0 ack 40 ------- 0 3.0 0.0 22 53
+ 1.71184 0 1 tcp 1000 ------- 0 0.0 3.0 42 69
- 1.71184 0 1 tcp 1000 ------- 0 0.0 3.0 42 69
r 1.71744 0 1 tcp 1000 ------- 0 0.0 3.0 41 68
+ 1.71744 1 2 tcp 1000 ------- 0 0.0 3.0 41 68
- 1.71744 1 2 tcp 1000 ------- 0 0.0 3.0 37 64
r 1.72378 2 1 ack 40 ------- 0 3.0 0.0 22 57
+ 1.72378 1 0 ack 40 ------- 0 3.0 0.0 22 57
- 1.72378 1 0 ack 40 ------- 0 3.0 0.0 22 57
r 1.72784 1 0 ack 40 ------- 0 3.0 0.0 22 54
r 1.73344 0 1 tcp 1000 ------- 0 0.0 3.0 42 69
+ 1.73344 1 2 tcp 1000 ------- 0 0.0 3.0 42 69
- 1.73344 1 2 tcp 1000 ------- 0 0.0 3.0 38 65
r 1.73744 1 2 tcp 1000 ------- 0 0.0 3.0 31 55
+ 1.73744 2 3 tcp 1000 ------- 0 0.0 3.0 31 55
- 1.73744 2 3 tcp 1000 ------- 0 0.0 3.0 31 55
r 1.73978 2 1 ack 40 ------- 0 3.0 0.0 22 60
+ 1.73978 1 0 ack 40 ------- 0 3.0 0.0 22 60
- 1.73978 1 0 ack 40 ------- 0 3.0 0.0 22 60
r 1.74384 1 0 ack 40 ------- 0 3.0 0.0 22 57
- 1.74944 1 2 tcp 1000 ------- 0 0.0 3.0 40 67
r 1.75344 1 2 tcp 1000 ------- 0 0.0 3.0 32 56
+ 1.75344 2 3 tcp 1000 ------- 0 0.0 3.0 32 56
- 1.75344 2 3 tcp 1000 ------- 0 0.0 3.0 32 56
r 1.75578 2 1 ack 40 ------- 0 3.0 0.0 22 63
+ 1.75578 1 0 ack 40 ------- 0 3.0 0.0 22 63
- 1.75578 1 0 ack 40 ------- 0 3.0 0.0 22 63
r 1.75904 2 3 tcp 1000 ------- 0 0.0 3.0 31 55
+ 1.75904 3 2 ack 40 ------- 0 3.0 0.0 22 70
- 1.75904 3 2 ack 40 ------- 0 3.0 0.0 22 70
r 1.75984 1 0 ack 40 ------- 0 3.0 0.0 22 60
+ 1.75984 0 1 tcp 1000 ---A--- 0 0.0 3.0 23 71
- 1.75984 0 1 tcp 1000 ---A--- 0 0.0 3.0 23 71
- 1.76544 1 2 tcp 1000 ------- 0 0.0 3.0 41 68
r 1.76944 1 2 tcp 1000 ------- 0 0.0 3.0 33 58
+ 1.76944 2 3 tcp 1000 ------- 0 0.0 3.0 33 58
- 1.76944 2 3 tcp 1000 ------- 0 0.0 3.0 33 58
r 1.77504 2 3 tcp 1000 ------- 0 0.0 3.0 32 56
+ 1.77504 3 2 ack 40 ------- 0 3.0 0.0 22 72
- 1.77504 3 2 ack 40 ------- 0 3.0 0.0 22 72
r 1.77584 1 0 ack 40 ------- 0 3.0 0.0 22 63
r 1.7791 3 2 ack 40 ------- 0 3.0 0.0 22 70
+ 1.7791 2 1 ack 40 ------- 0 3.0 0.0 22 70
- 1.7791 2 1 ack 40 ------- 0 3.0 0.0 22 70
r 1.78144 0 1 tcp 1000 ---A--- 0 0.0 3.0 23 71
+ 1.78144 1 2 tcp 1000 ---A--- 0 0.0 3.0 23 71
- 1.78144 1 2 tcp 1000 ------- 0 0.0 3.0 42 69
r 1.78544 1 2 tcp 1000 ------- 0 0.0 3.0 34 59
+ 1.78544 2 3 tcp 1000 ------- 0 0.0 3.0 34 59
- 1.78544 2 3 tcp 1000 ------- 0 0.0 3.0 34 59
r 1.79104 2 3 tcp 1000 ------- 0 0.0 3.0 33 58
+ 1.79104 3 2 ack 40 ------- 0 3.0 0.0 22 73
- 1.79104 3 2 ack 40 ------- 0 3.0 0.0 22 73
r 1.7951 3 2 ack 40 ------- 0 3.0 0.0 22 72
+ 1.7951 2 1 ack 40 ------- 0 3.0 0.0 22 72
- 1.7951 2 1 ack 40 ------- 0 3.0 0.0 22 72
- 1.79744 1 2 tcp 1000 ---A--- 0 0.0 3.0 23 71
r 1.80144 1 2 tcp 1000 ------- 0 0.0 3.0 35 61
+ 1.80144 2 3 tcp 1000 ------- 0 0.0 3.0 35 61
- 1.80144 2 3 tcp 1000 ------- 0 0.0 3.0 35 61
r 1.80704 2 3 tcp 1000 ------- 0 0.0 3.0 34 59
+ 1.80704 3 2 ack 40 ------- 0 3.0 0.0 22 74
- 1.80704 3 2 ack 40 ------- 0 3.0 0.0 22 74
r 1.8111 3 2 ack 40 ------- 0 3.0 0.0 22 73
+ 1.8111 2 1 ack 40 ------- 0 3.0 0.0 22 73
- 1.8111 2 1 ack 40 ------- 0 3.0 0.0 22 73
r 1.81744 1 2 tcp 1000 ------- 0 0.0 3.0 36 62
+ 1.81744 2 3 tcp 1000 ------- 0 0.0 3.0 36 62
- 1.81744 2 3 tcp 1000 ------- 0 0.0 3.0 36 62
r 1.82304 2 3 tcp 1000 ------- 0 0.0 3.0 35 61
+ 1.82304 3 2 ack 40 ------- 0 3.0 0.0 22 75
- 1.82304 3 2 ack 40 ------- 0 3.0 0.0 22 75
r 1.8271 3 2 ack 40 ------- 0 3.0 0.0 22 74
+ 1.8271 2 1 ack 40 ------- 0 3.0 0.0 22 74
- 1.8271 2 1 ack 40 ------- 0 3.0 0.0 22 74
r 1.83344 1 2 tcp 1000 ------- 0 0.0 3.0 37 64
+ 1.83344 2 3 tcp 1000 ------- 0 0.0 3.0 37 64
- 1.83344 2 3 tcp 1000 ------- 0 0.0 3.0 37 64
r 1.83904 2 3 tcp 1000 ------- 0 0.0 3.0 36 62
+ 1.83904 3 2 ack 40 ------- 0 3.0 0.0 22 76
- 1.83904 3 2 ack 40 ------- 0 3.0 0.0 22 76
r 1.8431 3 2 ack 40 ------- 0 3.0 0.0 22 75
+ 1.8431 2 1 ack 40 ------- 0 3.0 0.0 22 75
- 1.8431 2 1 ack 40 ------- 0 3.0 0.0 22 75
r 1.84944 1 2 tcp 1000 ------- 0 0.0 3.0 38 65
+ 1.84944 2 3 tcp 1000 ------- 0 0.0 3.0 38 65
- 1.84944 2 3 tcp 1000 ------- 0 0.0 3.0 38 65
r 1.85504 2 3 tcp 1000 ------- 0 0.0 3.0 37 64
+ 1.85504 3 2 ack 40 ------- 0 3.0 0.0 22 77
- 1.85504 3 2 ack 40 ------- 0 3.0 0.0 22 77
r 1.8591 3 2 ack 40 ------- 0 3.0 0.0 22 76
+ 1.8591 2 1 ack 40 ------- 0 3.0 0.0 22 76
- 1.8591 2 1 ack 40 ------- 0 3.0 0.0 22 76
r 1.86544 1 2 tcp 1000 ------- 0 0.0 3.0 40 67
+ 1.86544 2 3 tcp 1000 ------- 0 0.0 3.0 40 67
- 1.86544 2 3 tcp 1000 ------- 0 0.0 3.0 40 67
r 1.87104 2 3 tcp 1000 ------- 0 0.0 3.0 38 65
+ 1.87104 3 2 ack 40 ------- 0 3.0 0.0 22 78
- 1.87104 3 2 ack 40 ------- 0 3.0 0.0 22 78
r 1.8751 3 2 ack 40 ------- 0 3.0 0.0 22 77
+ 1.8751 2 1 ack 40 ------- 0 3.0 0.0 22 77
- 1.8751 2 1 ack 40 ------- 0 3.0 0.0 22 77
r 1.87974 2 1 ack 40 ------- 0 3.0 0.0 22 70
+ 1.87974 1 0 ack 40 ------- 0 3.0 0.0 22 70
- 1.87974 1 0 ack 40 ------- 0 3.0 0.0 22 70
r 1.88144 1 2 tcp 1000 ------- 0 0.0 3.0 41 68
+ 1.88144 2 3 tcp 1000 ------- 0 0.0 3.0 41 68
- 1.88144 2 3 tcp 1000 ------- 0 0.0 3.0 41 68
r 1.88704 2 3 tcp 1000 ------- 0 0.0 3.0 40 67
+ 1.88704 3 2 ack 40 ------- 0 3.0 0.0 22 79
- 1.88704 3 2 ack 40 ------- 0 3.0 0.0 22 79
r 1.8911 3 2 ack 40 ------- 0 3.0 0.0 22 78
+ 1.8911 2 1 ack 40 ------- 0 3.0 0.0 22 78
- 1.8911 2 1 ack 40 ------- 0 3.0 0.0 22 78
r 1.89574 2 1 ack 40 ------- 0 3.0 0.0 22 72