V -t * -v 1.0a5 -a 1 -c 1 -F 2 -M 3
c -t * -i 0 -n black
c -t * -i 1 -n red
N -t * -S 0 -n {TCP session  between node 0.0 and node 3.0} -p TCP  -m {}
N -t * -S 0 -h 62
N -t * -F 0 -M 0 -n tcp
N -t * -F 1 -M 2 -n tcp_cong
N -t * -F 0 -M 1 -n ack
A -t * -n 1 -p 0 -o 255 -c 15 -a 1
A -t * -h 1 -m 127 -s 8
n -t * -a 0 -s 0 -S UP -v circle -c black
n -t * -a 1 -s 1 -S UP -v circle -c black
n -t * -a 2 -s 2 -S UP -v circle -c black
n -t * -a 3 -s 3 -S UP -v circle -c black
l -t * -s 0 -d 1 -S UP -r 5000000 -D 0.02 -c black -o right
l -t * -s 1 -d 2 -S UP -r 500000 -D 0.10000000000000001 -c black -o right
l -t * -s 2 -d 3 -S UP -r 5000000 -D 0.02 -c black -o right
q -t * -s 2 -d 1 -a 0.5
q -t * -s 1 -d 2 -a 0.5
a -t 0.00000000000000000 -s 0 -d 3 -n tcp
f -t 0.00000000000000000 -s 0 -d 3 -n ssthresh_ -a tcp -v 20 -T v
f -t 0.00000000000000000 -s 0 -d 3 -n cwnd_ -a tcp -v 1.000000 -T v
v -t 0.00000000000000000 monitor_agent 0 tcp
n -t 0 -s 0 -S DLABEL -l TCP -L ""
n -t 0 -s 3 -S DLABEL -l TCP -L ""
v -t 0 sim_annotation 0 1 TCP with multiplicative decrease
+ -t 0.1 -s 0 -d 1 -p tcp -e 1000 -c 0 -i 0 -a 0 -S 0 -f 0 -m 0 -y {0 0}
- -t 0.1 -s 0 -d 1 -p tcp -e 1000 -c 0 -i 0 -a 0 -S 0 -y {0 0}
h -t 0.1 -s 0 -d 1 -p tcp -e 1000 -c 0 -i 0 -a 0 -S 0 -y {-1 -1}
r -t 0.1216 -s 0 -d 1 -p tcp -e 1000 -c 0 -i 0 -a 0 -S 0 -y {0 0}
+ -t 0.1216 -s 1 -d 2 -p tcp -e 1000 -c 0 -i 0 -a 0 -S 0 -y {0 0}
- -t 0.1216 -s 1 -d 2 -p tcp -e 1000 -c 0 -i 0 -a 0 -S 0 -y {0 0}
h -t 0.1216 -s 1 -d 2 -p tcp -e 1000 -c 0 -i 0 -a 0 -S 0 -y {-1 -1}
r -t 0.2376 -s 1 -d 2 -p tcp -e 1000 -c 0 -i 0 -a 0 -S 0 -y {0 0}
+ -t 0.2376 -s 2 -d 3 -p tcp -e 1000 -c 0 -i 0 -a 0 -S 0 -y {0 0}
- -t 0.2376 -s 2 -d 3 -p tcp -e 1000 -c 0 -i 0 -a 0 -S 0 -y {0 0}
h -t 0.2376 -s 2 -d 3 -p tcp -e 1000 -c 0 -i 0 -a 0 -S 0 -y {-1 -1}
r -t 0.2592 -s 2 -d 3 -p tcp -e 1000 -c 0 -i 0 -a 0 -S 0 -y {0 0}
+ -t 0.2592 -s 3 -d 2 -p ack -e 40 -c 0 -i 1 -a 0 -S 0 -y {0 0}
- -t 0.2592 -s 3 -d 2 -p ack -e 40 -c 0 -i 1 -a 0 -S 0 -y {0 0}
h -t 0.2592 -s 3 -d 2 -p ack -e 40 -c 0 -i 1 -a 0 -S 0 -y {-1 -1}
r -t 0.279264 -s 3 -d 2 -p ack -e 40 -c 0 -i 1 -a 0 -S 0 -y {0 0}
+ -t 0.279264 -s 2 -d 1 -p ack -e 40 -c 0 -i 1 -a 0 -S 0 -y {0 0}
- -t 0.279264 -s 2 -d 1 -p ack -e 40 -c 0 -i 1 -a 0 -S 0 -y {0 0}
h -t 0.279264 -s 2 -d 1 -p ack -e 40 -c 0 -i 1 -a 0 -S 0 -y {-1 -1}
r -t 0.379904 -s 2 -d 1 -p ack -e 40 -c 0 -i 1 -a 0 -S 0 -y {0 0}
+ -t 0.379904 -s 1 -d 0 -p ack -e 40 -c 0 -i 1 -a 0 -S 0 -y {0 0}
- -t 0.379904 -s 1 -d 0 -p ack -e 40 -c 0 -i 1 -a 0 -S 0 -f 0 -m 1 -y {0 0}
h -t 0.379904 -s 1 -d 0 -p ack -e 40 -c 0 -i 1 -a 0 -S 0 -y {-1 -1}
r -t 0.399968 -s 1 -d 0 -p ack -e 40 -c 0 -i 1 -a 0 -S 0 -y {0 0}
f -t 0.39996800000000010 -s 0 -d 3 -n cwnd_ -a tcp -v 2.000000 -o 1.000000 -T v
+ -t 0.399968 -s 0 -d 1 -p tcp -e 1000 -c 0 -i 2 -a 0 -S 0 -f 0 -m 0 -y {1 1}
- -t 0.399968 -s 0 -d 1 -p tcp -e 1000 -c 0 -i 2 -a 0 -S 0 -y {1 1}
h -t 0.399968 -s 0 -d 1 -p tcp -e 1000 -c 0 -i 2 -a 0 -S 0 -y {-1 -1}
+ -t 0.399968 -s 0 -d 1 -p tcp -e 1000 -c 0 -i 3 -a 0 -S 0 -f 0 -m 0 -y {2 2}
- -t 0.401568 -s 0 -d 1 -p tcp -e 1000 -c 0 -i 3 -a 0 -S 0 -y {2 2}
h -t 0.401568 -s 0 -d 1 -p tcp -e 1000 -c 0 -i 3 -a 0 -S 0 -y {-1 -1}
r -t 0.421568 -s 0 -d 1 -p tcp -e 1000 -c 0 -i 2 -a 0 -S 0 -y {1 1}
+ -t 0.421568 -s 1 -d 2 -p tcp -e 1000 -c 0 -i 2 -a 0 -S 0 -y {1 1}
- -t 0.421568 -s 1 -d 2 -p tcp -e 1000 -c 0 -i 2 -a 0 -S 0 -y {1 1}
h -t 0.421568 -s 1 -d 2 -p tcp -e 1000 -c 0 -i 2 -a 0 -S 0 -y {-1 -1}
r -t 0.423168 -s 0 -d 1 -p tcp -e 1000 -c 0 -i 3 -a 0 -S 0 -y {2 2}
+ -t 0.423168 -s 1 -d 2 -p tcp -e 1000 -c 0 -i 3 -a 0 -S 0 -y {2 2}
- -t 0.437568 -s 1 -d 2 -p tcp -e 1000 -c 0 -i 3 -a 0 -S 0 -y {2 2}
h -t 0.437568 -s 1 -d 2 -p tcp -e 1000 -c 0 -i 3 -a 0 -S 0 -y {-1 -1}
r -t 0.537568 -s 1 -d 2 -p tcp -e 1000 -c 0 -i 2 -a 0 -S 0 -y {1 1}
+ -t 0.537568 -s 2 -d 3 -p tcp -e 1000 -c 0 -i 2 -a 0 -S 0 -y {1 1}
- -t 0.537568 -s 2 -d 3 -p tcp -e 1000 -c 0 -i 2 -a 0 -S 0 -y {1 1}
h -t 0.537568 -s 2 -d 3 -p tcp -e 1000 -c 0 -i 2 -a 0 -S 0 -y {-1 -1}
r -t 0.553568 -s 1 -d 2 -p tcp -e 1000 -c 0 -i 3 -a 0 -S 0 -y {2 2}
+ -t 0.553568 -s 2 -d 3 -p tcp -e 1000 -c 0 -i 3 -a 0 -S 0 -y {2 2}
- -t 0.553568 -s 2 -d 3 -p tcp -e 1000 -c 0 -i 3 -a 0 -S 0 -y {2 2}
h -t 0.553568 -s 2 -d 3 -p tcp -e 1000 -c 0 -i 3 -a 0 -S 0 -y {-1 -1}
r -t 0.559168 -s 2 -d 3 -p tcp -e 1000 -c 0 -i 2 -a 0 -S 0 -y {1 1}
+ -t 0.559168 -s 3 -d 2 -p ack -e 40 -c 0 -i 4 -a 0 -S 0 -y {1 1}
- -t 0.559168 -s 3 -d 2 -p ack -e 40 -c 0 -i 4 -a 0 -S 0 -y {1 1}
h -t 0.559168 -s 3 -d 2 -p ack -e 40 -c 0 -i 4 -a 0 -S 0 -y {-1 -1}
r -t 0.575168 -s 2 -d 3 -p tcp -e 1000 -c 0 -i 3 -a 0 -S 0 -y {2 2}
+ -t 0.575168 -s 3 -d 2 -p ack -e 40 -c 0 -i 5 -a 0 -S 0 -y {2 2}
- -t 0.575168 -s 3 -d 2 -p ack -e 40 -c 0 -i 5 -a 0 -S 0 -y {2 2}
h -t 0.575168 -s 3 -d 2 -p ack -e 40 -c 0 -i 5 -a 0 -S 0 -y {-1 -1}
r -t 0.579232 -s 3 -d 2 -p ack -e 40 -c 0 -i 4 -a 0 -S 0 -y {1 1}
+ -t 0.579232 -s 2 -d 1 -p ack -e 40 -c 0 -i 4 -a 0 -S 0 -y {1 1}
- -t 0.579232 -s 2 -d 1 -p ack -e 40 -c 0 -i 4 -a 0 -S 0 -y {1 1}
h -t 0.579232 -s 2 -d 1 -p ack -e 40 -c 0 -i 4 -a 0 -S 0 -y {-1 -1}
r -t 0.595232 -s 3 -d 2 -p ack -e 40 -c 0 -i 5 -a 0 -S 0 -y {2 2}
+ -t 0.595232 -s 2 -d 1 -p ack -e 40 -c 0 -i 5 -a 0 -S 0 -y {2 2}
- -t 0.595232 -s 2 -d 1 -p ack -e 40 -c 0 -i 5 -a 0 -S 0 -y {2 2}
h -t 0.595232 -s 2 -d 1 -p ack -e 40 -c 0 -i 5 -a 0 -S 0 -y {-1 -1}
r -t 0.679872 -s 2 -d 1 -p ack -e 40 -c 0 -i 4 -a 0 -S 0 -y {1 1}
+ -t 0.679872 -s 1 -d 0 -p ack -e 40 -c 0 -i 4 -a 0 -S 0 -y {1 1}
- -t 0.679872 -s 1 -d 0 -p ack -e 40 -c 0 -i 4 -a 0 -S 0 -f 0 -m 1 -y {1 1}
h -t 0.679872 -s 1 -d 0 -p ack -e 40 -c 0 -i 4 -a 0 -S 0 -y {-1 -1}
r -t 0.695872 -s 2 -d 1 -p ack -e 40 -c 0 -i 5 -a 0 -S 0 -y {2 2}
+ -t 0.695872 -s 1 -d 0 -p ack -e 40 -c 0 -i 5 -a 0 -S 0 -y {2 2}
- -t 0.695872 -s 1 -d 0 -p ack -e 40 -c 0 -i 5 -a 0 -S 0 -f 0 -m 1 -y {2 2}
h -t 0.695872 -s 1 -d 0 -p ack -e 40 -c 0 -i 5 -a 0 -S 0 -y {-1 -1}
r -t 0.699936 -s 1 -d 0 -p ack -e 40 -c 0 -i 4 -a 0 -S 0 -y {1 1}
f -t 0.69993600000000000 -s 0 -d 3 -n cwnd_ -a tcp -v 3.000000 -o 2.000000 -T v
+ -t 0.699936 -s 0 -d 1 -p tcp -e 1000 -c 0 -i 6 -a 0 -S 0 -f 0 -m 0 -y {3 3}
- -t 0.699936 -s 0 -d 1 -p tcp -e 1000 -c 0 -i 6 -a 0 -S 0 -y {3 3}
h -t 0.699936 -s 0 -d 1 -p tcp -e 1000 -c 0 -i 6 -a 0 -S 0 -y {-1 -1}
+ -t 0.699936 -s 0 -d 1 -p tcp -e 1000 -c 0 -i 7 -a 0 -S 0 -f 0 -m 0 -y {4 4}
- -t 0.701536 -s 0 -d 1 -p tcp -e 1000 -c 0 -i 7 -a 0 -S 0 -y {4 4}
h -t 0.701536 -s 0 -d 1 -p tcp -e 1000 -c 0 -i 7 -a 0 -S 0 -y {-1 -1}
r -t 0.715936 -s 1 -d 0 -p ack -e 40 -c 0 -i 5 -a 0 -S 0 -y {2 2}
f -t 0.71593600000000002 -s 0 -d 3 -n cwnd_ -a tcp -v 4.000000 -o 3.000000 -T v
+ -t 0.715936 -s 0 -d 1 -p tcp -e 1000 -c 0 -i 8 -a 0 -S 0 -f 0 -m 0 -y {5 5}
- -t 0.715936 -s 0 -d 1 -p tcp -e 1000 -c 0 -i 8 -a 0 -S 0 -y {5 5}
h -t 0.715936 -s 0 -d 1 -p tcp -e 1000 -c 0 -i 8 -a 0 -S 0 -y {-1 -1}
+ -t 0.715936 -s 0 -d 1 -p tcp -e 1000 -c 0 -i 9 -a 0 -S 0 -f 0 -m 0 -y {6 6}
- -t 0.717536 -s 0 -d 1 -p tcp -e 1000 -c 0 -i 9 -a 0 -S 0 -y {6 6}
h -t 0.717536 -s 0 -d 1 -p tcp -e 1000 -c 0 -i 9 -a 0 -S 0 -y {-1 -1}
r -t 0.721536 -s 0 -d 1 -p tcp -e 1000 -c 0 -i 6 -a 0 -S 0 -y {3 3}
+ -t 0.721536 -s 1 -d 2 -p tcp -e 1000 -c 0 -i 6 -a 0 -S 0 -y {3 3}
- -t 0.721536 -s 1 -d 2 -p tcp -e 1000 -c 0 -i 6 -a 0 -S 0 -y {3 3}
h -t 0.721536 -s 1 -d 2 -p tcp -e 1000 -c 0 -i 6 -a 0 -S 0 -y {-1 -1}
r -t 0.723136 -s 0 -d 1 -p tcp -e 1000 -c 0 -i 7 -a 0 -S 0 -y {4 4}
+ -t 0.723136 -s 1 -d 2 -p tcp -e 1000 -c 0 -i 7 -a 0 -S 0 -y {4 4}
r -t 0.737536 -s 0 -d 1 -p tcp -e 1000 -c 0 -i 8 -a 0 -S 0 -y {5 5}
+ -t 0.737536 -s 1 -d 2 -p tcp -e 1000 -c 0 -i 8 -a 0 -S 0 -y {5 5}
- -t 0.737536 -s 1 -d 2 -p tcp -e 1000 -c 0 -i 7 -a 0 -S 0 -y {4 4}
h -t 0.737536 -s 1 -d 2 -p tcp -e 1000 -c 0 -i 7 -a 0 -S 0 -y {-1 -1}
r -t 0.739136 -s 0 -d 1 -p tcp -e 1000 -c 0 -i 9 -a 0 -S 0 -y {6 6}
+ -t 0.739136 -s 1 -d 2 -p tcp -e 1000 -c 0 -i 9 -a 0 -S 0 -y {6 6}
- -t 0.753536 -s 1 -d 2 -p tcp -e 1000 -c 0 -i 8 -a 0 -S 0 -y {5 5}
h -t 0.753536 -s 1 -d 2 -p tcp -e 1000 -c 0 -i 8 -a 0 -S 0 -y {-1 -1}
- -t 0.769536 -s 1 -d 2 -p tcp -e 1000 -c 0 -i 9 -a 0 -S 0 -y {6 6}
h -t 0.769536 -s 1 -d 2 -p tcp -e 1000 -c 0 -i 9 -a 0 -S 0 -y {-1 -1}
r -t 0.837536 -s 1 -d 2 -p tcp -e 1000 -c 0 -i 6 -a 0 -S 0 -y {3 3}
+ -t 0.837536 -s 2 -d 3 -p tcp -e 1000 -c 0 -i 6 -a 0 -S 0 -y {3 3}
- -t 0.837536 -s 2 -d 3 -p tcp -e 1000 -c 0 -i 6 -a 0 -S 0 -y {3 3}
h -t 0.837536 -s 2 -d 3 -p tcp -e 1000 -c 0 -i 6 -a 0 -S 0 -y {-1 -1}
r -t 0.853536 -s 1 -d 2 -p tcp -e 1000 -c 0 -i 7 -a 0 -S 0 -y {4 4}
+ -t 0.853536 -s 2 -d 3 -p tcp -e 1000 -c 0 -i 7 -a 0 -S 0 -y {4 4}
- -t 0.853536 -s 2 -d 3 -p tcp -e 1000 -c 0 -i 7 -a 0 -S 0 -y {4 4}
h -t 0.853536 -s 2 -d 3 -p tcp -e 1000 -c 0 -i 7 -a 0 -S 0 -y {-1 -1}
r -t 0.859136 -s 2 -d 3 -p tcp -e 1000 -c 0 -i 6 -a 0 -S 0 -y {3 3}
+ -t 0.859136 -s 3 -d 2 -p ack -e 40 -c 0 -i 10 -a 0 -S 0 -y {3 3}
- -t 0.859136 -s 3 -d 2 -p ack -e 40 -c 0 -i 10 -a 0 -S 0 -y {3 3}
h -t 0.859136 -s 3 -d 2 -p ack -e 40 -c 0 -i 10 -a 0 -S 0 -y {-1 -1}
r -t 0.869536 -s 1 -d 2 -p tcp -e 1000 -c 0 -i 8 -a 0 -S 0 -y {5 5}
+ -t 0.869536 -s 2 -d 3 -p tcp -e 1000 -c 0 -i 8 -a 0 -S 0 -y {5 5}
- -t 0.869536 -s 2 -d 3 -p tcp -e 1000 -c 0 -i 8 -a 0 -S 0 -y {5 5}
h -t 0.869536 -s 2 -d 3 -p tcp -e 1000 -c 0 -i 8 -a 0 -S 0 -y {-1 -1}
r -t 0.875136 -s 2 -d 3 -p tcp -e 1000 -c 0 -i 7 -a 0 -S 0 -y {4 4}
+ -t 0.875136 -s 3 -d 2 -p ack -e 40 -c 0 -i 11 -a 0 -S 0 -y {4 4}
- -t 0.875136 -s 3 -d 2 -p ack -e 40 -c 0 -i 11 -a 0 -S 0 -y {4 4}
h -t 0.875136 -s 3 -d 2 -p ack -e 40 -c 0 -i 11 -a 0 -S 0 -y {-1 -1}
r -t 0.8792 -s 3 -d 2 -p ack -e 40 -c 0 -i 10 -a 0 -S 0 -y {3 3}
+ -t 0.8792 -s 2 -d 1 -p ack -e 40 -c 0 -i 10 -a 0 -S 0 -y {3 3}
- -t 0.8792 -s 2 -d 1 -p ack -e 40 -c 0 -i 10 -a 0 -S 0 -y {3 3}
h -t 0.8792 -s 2 -d 1 -p ack -e 40 -c 0 -i 10 -a 0 -S 0 -y {-1 -1}
r -t 0.885536 -s 1 -d 2 -p tcp -e 1000 -c 0 -i 9 -a 0 -S 0 -y {6 6}
+ -t 0.885536 -s 2 -d 3 -p tcp -e 1000 -c 0 -i 9 -a 0 -S 0 -y {6 6}
- -t 0.885536 -s 2 -d 3 -p tcp -e 1000 -c 0 -i 9 -a 0 -S 0 -y {6 6}
h -t 0.885536 -s 2 -d 3 -p tcp -e 1000 -c 0 -i 9 -a 0 -S 0 -y {-1 -1}
r -t 0.891136 -s 2 -d 3 -p tcp -e 1000 -c 0 -i 8 -a 0 -S 0 -y {5 5}
+ -t 0.891136 -s 3 -d 2 -p ack -e 40 -c 0 -i 12 -a 0 -S 0 -y {5 5}
- -t 0.891136 -s 3 -d 2 -p ack -e 40 -c 0 -i 12 -a 0 -S 0 -y {5 5}
h -t 0.891136 -s 3 -d 2 -p ack -e 40 -c 0 -i 12 -a 0 -S 0 -y {-1 -1}
r -t 0.8952 -s 3 -d 2 -p ack -e 40 -c 0 -i 11 -a 0 -S 0 -y {4 4}
+ -t 0.8952 -s 2 -d 1 -p ack -e 40 -c 0 -i 11 -a 0 -S 0 -y {4 4}
- -t 0.8952 -s 2 -d 1 -p ack -e 40 -c 0 -i 11 -a 0 -S 0 -y {4 4}
h -t 0.8952 -s 2 -d 1 -p ack -e 40 -c 0 -i 11 -a 0 -S 0 -y {-1 -1}
r -t 0.907136 -s 2 -d 3 -p tcp -e 1000 -c 0 -i 9 -a 0 -S 0 -y {6 6}
+ -t 0.907136 -s 3 -d 2 -p ack -e 40 -c 0 -i 13 -a 0 -S 0 -y {6 6}
- -t 0.907136 -s 3 -d 2 -p ack -e 40 -c 0 -i 13 -a 0 -S 0 -y {6 6}
h -t 0.907136 -s 3 -d 2 -p ack -e 40 -c 0 -i 13 -a 0 -S 0 -y {-1 -1}
r -t 0.9112 -s 3 -d 2 -p ack -e 40 -c 0 -i 12 -a 0 -S 0 -y {5 5}
+ -t 0.9112 -s 2 -d 1 -p ack -e 40 -c 0 -i 12 -a 0 -S 0 -y {5 5}
- -t 0.9112 -s 2 -d 1 -p ack -e 40 -c 0 -i 12 -a 0 -S 0 -y {5 5}
h -t 0.9112 -s 2 -d 1 -p ack -e 40 -c 0 -i 12 -a 0 -S 0 -y {-1 -1}
r -t 0.9272 -s 3 -d 2 -p ack -e 40 -c 0 -i 13 -a 0 -S 0 -y {6 6}
+ -t 0.9272 -s 2 -d 1 -p ack -e 40 -c 0 -i 13 -a 0 -S 0 -y {6 6}
- -t 0.9272 -s 2 -d 1 -p ack -e 40 -c 0 -i 13 -a 0 -S 0 -y {6 6}
h -t 0.9272 -s 2 -d 1 -p ack -e 40 -c 0 -i 13 -a 0 -S 0 -y {-1 -1}
r -t 0.97984 -s 2 -d 1 -p ack -e 40 -c 0 -i 10 -a 0 -S 0 -y {3 3}
+ -t 0.97984 -s 1 -d 0 -p ack -e 40 -c 0 -i 10 -a 0 -S 0 -y {3 3}
- -t 0.97984 -s 1 -d 0 -p ack -e 40 -c 0 -i 10 -a 0 -S 0 -f 0 -m 1 -y {3 3}
h -t 0.97984 -s 1 -d 0 -p ack -e 40 -c 0 -i 10 -a 0 -S 0 -y {-1 -1}
r -t 0.99584 -s 2 -d 1 -p ack -e 40 -c 0 -i 11 -a 0 -S 0 -y {4 4}
+ -t 0.99584 -s 1 -d 0 -p ack -e 40 -c 0 -i 11 -a 0 -S 0 -y {4 4}
- -t 0.99584 -s 1 -d 0 -p ack -e 40 -c 0 -i 11 -a 0 -S 0 -f 0 -m 1 -y {4 4}
h -t 0.99584 -s 1 -d 0 -p ack -e 40 -c 0 -i 11 -a 0 -S 0 -y {-1 -1}
r -t 0.999904 -s 1 -d 0 -p ack -e 40 -c 0 -i 10 -a 0 -S 0 -y {3 3}
f -t 0.99990399999999979 -s 0 -d 3 -n cwnd_ -a tcp -v 5.000000 -o 4.000000 -T v
+ -t 0.999904 -s 0 -d 1 -p tcp -e 1000 -c 0 -i 14 -a 0 -S 0 -f 0 -m 0 -y {7 7}
- -t 0.999904 -s 0 -d 1 -p tcp -e 1000 -c 0 -i 14 -a 0 -S 0 -y {7 7}
h -t 0.999904 -s 0 -d 1 -p tcp -e 1000 -c 0 -i 14 -a 0 -S 0 -y {-1 -1}
+ -t 0.999904 -s 0 -d 1 -p tcp -e 1000 -c 0 -i 15 -a 0 -S 0 -f 0 -m 0 -y {8 8}
- -t 1.0015 -s 0 -d 1 -p tcp -e 1000 -c 0 -i 15 -a 0 -S 0 -y {8 8}
h -t 1.0015 -s 0 -d 1 -p tcp -e 1000 -c 0 -i 15 -a 0 -S 0 -y {-1 -1}
r -t 1.01184 -s 2 -d 1 -p ack -e 40 -c 0 -i 12 -a 0 -S 0 -y {5 5}
+ -t 1.01184 -s 1 -d 0 -p ack -e 40 -c 0 -i 12 -a 0 -S 0 -y {5 5}
- -t 1.01184 -s 1 -d 0 -p ack -e 40 -c 0 -i 12 -a 0 -S 0 -f 0 -m 1 -y {5 5}
h -t 1.01184 -s 1 -d 0 -p ack -e 40 -c 0 -i 12 -a 0 -S 0 -y {-1 -1}
r -t 1.0159 -s 1 -d 0 -p ack -e 40 -c 0 -i 11 -a 0 -S 0 -y {4 4}
f -t 1.01590399999999992 -s 0 -d 3 -n cwnd_ -a tcp -v 6.000000 -o 5.000000 -T v
+ -t 1.0159 -s 0 -d 1 -p tcp -e 1000 -c 0 -i 16 -a 0 -S 0 -f 0 -m 0 -y {9 9}
- -t 1.0159 -s 0 -d 1 -p tcp -e 1000 -c 0 -i 16 -a 0 -S 0 -y {9 9}
h -t 1.0159 -s 0 -d 1 -p tcp -e 1000 -c 0 -i 16 -a 0 -S 0 -y {-1 -1}
+ -t 1.0159 -s 0 -d 1 -p tcp -e 1000 -c 0 -i 17 -a 0 -S 0 -f 0 -m 0 -y {10 10}
- -t 1.0175 -s 0 -d 1 -p tcp -e 1000 -c 0 -i 17 -a 0 -S 0 -y {10 10}
h -t 1.0175 -s 0 -d 1 -p tcp -e 1000 -c 0 -i 17 -a 0 -S 0 -y {-1 -1}
r -t 1.0215 -s 0 -d 1 -p tcp -e 1000 -c 0 -i 14 -a 0 -S 0 -y {7 7}
+ -t 1.0215 -s 1 -d 2 -p tcp -e 1000 -c 0 -i 14 -a 0 -S 0 -y {7 7}
- -t 1.0215 -s 1 -d 2 -p tcp -e 1000 -c 0 -i 14 -a 0 -S 0 -y {7 7}
h -t 1.0215 -s 1 -d 2 -p tcp -e 1000 -c 0 -i 14 -a 0 -S 0 -y {-1 -1}
r -t 1.0231 -s 0 -d 1 -p tcp -e 1000 -c 0 -i 15 -a 0 -S 0 -y {8 8}
+ -t 1.0231 -s 1 -d 2 -p tcp -e 1000 -c 0 -i 15 -a 0 -S 0 -y {8 8}
r -t 1.02784 -s 2 -d 1 -p ack -e 40 -c 0 -i 13 -a 0 -S 0 -y {6 6}
+ -t 1.02784 -s 1 -d 0 -p ack -e 40 -c 0 -i 13 -a 0 -S 0 -y {6 6}
- -t 1.02784 -s 1 -d 0 -p ack -e 40 -c 0 -i 13 -a 0 -S 0 -f 0 -m 1 -y {6 6}
h -t 1.02784 -s 1 -d 0 -p ack -e 40 -c 0 -i 13 -a 0 -S 0 -y {-1 -1}
r -t 1.0319 -s 1 -d 0 -p ack -e 40 -c 0 -i 12 -a 0 -S 0 -y {5 5}
f -t 1.03190399999999993 -s 0 -d 3 -n cwnd_ -a tcp -v 7.000000 -o 6.000000 -T v
+ -t 1.0319 -s 0 -d 1 -p tcp -e 1000 -c 0 -i 18 -a 0 -S 0 -f 0 -m 0 -y {11 11}
- -t 1.0319 -s 0 -d 1 -p tcp -e 1000 -c 0 -i 18 -a 0 -S 0 -y {11 11}
h -t 1.0319 -s 0 -d 1 -p tcp -e 1000 -c 0 -i 18 -a 0 -S 0 -y {-1 -1}
+ -t 1.0319 -s 0 -d 1 -p tcp -e 1000 -c 0 -i 19 -a 0 -S 0 -f 0 -m 0 -y {12 12}
- -t 1.0335 -s 0 -d 1 -p tcp -e 1000 -c 0 -i 19 -a 0 -S 0 -y {12 12}
h -t 1.0335 -s 0 -d 1 -p tcp -e 1000 -c 0 -i 19 -a 0 -S 0 -y {-1 -1}
- -t 1.0375 -s 1 -d 2 -p tcp -e 1000 -c 0 -i 15 -a 0 -S 0 -y {8 8}
h -t 1.0375 -s 1 -d 2 -p tcp -e 1000 -c 0 -i 15 -a 0 -S 0 -y {-1 -1}
r -t 1.0375 -s 0 -d 1 -p tcp -e 1000 -c 0 -i 16 -a 0 -S 0 -y {9 9}
+ -t 1.0375 -s 1 -d 2 -p tcp -e 1000 -c 0 -i 16 -a 0 -S 0 -y {9 9}
r -t 1.0391 -s 0 -d 1 -p tcp -e 1000 -c 0 -i 17 -a 0 -S 0 -y {10 10}
+ -t 1.0391 -s 1 -d 2 -p tcp -e 1000 -c 0 -i 17 -a 0 -S 0 -y {10 10}
r -t 1.0479 -s 1 -d 0 -p ack -e 40 -c 0 -i 13 -a 0 -S 0 -y {6 6}
f -t 1.04790399999999995 -s 0 -d 3 -n cwnd_ -a tcp -v 8.000000 -o 7.000000 -T v
+ -t 1.0479 -s 0 -d 1 -p tcp -e 1000 -c 0 -i 20 -a 0 -S 0 -f 0 -m 0 -y {13 13}
- -t 1.0479 -s 0 -d 1 -p tcp -e 1000 -c 0 -i 20 -a 0 -S 0 -y {13 13}
h -t 1.0479 -s 0 -d 1 -p tcp -e 1000 -c 0 -i 20 -a 0 -S 0 -y {-1 -1}
+ -t 1.0479 -s 0 -d 1 -p tcp -e 1000 -c 0 -i 21 -a 0 -S 0 -f 0 -m 0 -y {14 14}
- -t 1.0495 -s 0 -d 1 -p tcp -e 1000 -c 0 -i 21 -a 0 -S 0 -y {14 14}
h -t 1.0495 -s 0 -d 1 -p tcp -e 1000 -c 0 -i 21 -a 0 -S 0 -y {-1 -1}
- -t 1.0535 -s 1 -d 2 -p tcp -e 1000 -c 0 -i 16 -a 0 -S 0 -y {9 9}
h -t 1.0535 -s 1 -d 2 -p tcp -e 1000 -c 0 -i 16 -a 0 -S 0 -y {-1 -1}
r -t 1.0535 -s 0 -d 1 -p tcp -e 1000 -c 0 -i 18 -a 0 -S 0 -y {11 11}
+ -t 1.0535 -s 1 -d 2 -p tcp -e 1000 -c 0 -i 18 -a 0 -S 0 -y {11 11}
r -t 1.0551 -s 0 -d 1 -p tcp -e 1000 -c 0 -i 19 -a 0 -S 0 -y {12 12}
+ -t 1.0551 -s 1 -d 2 -p tcp -e 1000 -c 0 -i 19 -a 0 -S 0 -y {12 12}
- -t 1.0695 -s 1 -d 2 -p tcp -e 1000 -c 0 -i 17 -a 0 -S 0 -y {10 10}
h -t 1.0695 -s 1 -d 2 -p tcp -e 1000 -c 0 -i 17 -a 0 -S 0 -y {-1 -1}
r -t 1.0695 -s 0 -d 1 -p tcp -e 1000 -c 0 -i 20 -a 0 -S 0 -y {13 13}
+ -t 1.0695 -s 1 -d 2 -p tcp -e 1000 -c 0 -i 20 -a 0 -S 0 -y {13 13}
r -t 1.0711 -s 0 -d 1 -p tcp -e 1000 -c 0 -i 21 -a 0 -S 0 -y {14 14}
+ -t 1.0711 -s 1 -d 2 -p tcp -e 1000 -c 0 -i 21 -a 0 -S 0 -y {14 14}
- -t 1.0855 -s 1 -d 2 -p tcp -e 1000 -c 0 -i 18 -a 0 -S 0 -y {11 11}
h -t 1.0855 -s 1 -d 2 -p tcp -e 1000 -c 0 -i 18 -a 0 -S 0 -y {-1 -1}
- -t 1.1015 -s 1 -d 2 -p tcp -e 1000 -c 0 -i 19 -a 0 -S 0 -y {12 12}
h -t 1.1015 -s 1 -d 2 -p tcp -e 1000 -c 0 -i 19 -a 0 -S 0 -y {-1 -1}
- -t 1.1175 -s 1 -d 2 -p tcp -e 1000 -c 0 -i 20 -a 0 -S 0 -y {13 13}
h -t 1.1175 -s 1 -d 2 -p tcp -e 1000 -c 0 -i 20 -a 0 -S 0 -y {-1 -1}
- -t 1.1335 -s 1 -d 2 -p tcp -e 1000 -c 0 -i 21 -a 0 -S 0 -y {14 14}
h -t 1.1335 -s 1 -d 2 -p tcp -e 1000 -c 0 -i 21 -a 0 -S 0 -y {-1 -1}
r -t 1.1375 -s 1 -d 2 -p tcp -e 1000 -c 0 -i 14 -a 0 -S 0 -y {7 7}
+ -t 1.1375 -s 2 -d 3 -p tcp -e 1000 -c 0 -i 14 -a 0 -S 0 -y {7 7}
- -t 1.1375 -s 2 -d 3 -p tcp -e 1000 -c 0 -i 14 -a 0 -S 0 -y {7 7}
h -t 1.1375 -s 2 -d 3 -p tcp -e 1000 -c 0 -i 14 -a 0 -S 0 -y {-1 -1}
r -t 1.1535 -s 1 -d 2 -p tcp -e 1000 -c 0 -i 15 -a 0 -S 0 -y {8 8}
+ -t 1.1535 -s 2 -d 3 -p tcp -e 1000 -c 0 -i 15 -a 0 -S 0 -y {8 8}
- -t 1.1535 -s 2 -d 3 -p tcp -e 1000 -c 0 -i 15 -a 0 -S 0 -y {8 8}
h -t 1.1535 -s 2 -d 3 -p tcp -e 1000 -c 0 -i 15 -a 0 -S 0 -y {-1 -1}
r -t 1.1591 -s 2 -d 3 -p tcp -e 1000 -c 0 -i 14 -a 0 -S 0 -y {7 7}
+ -t 1.1591 -s 3 -d 2 -p ack -e 40 -c 0 -i 22 -a 0 -S 0 -y {7 7}
- -t 1.1591 -s 3 -d 2 -p ack -e 40 -c 0 -i 22 -a 0 -S 0 -y {7 7}
h -t 1.1591 -s 3 -d 2 -p ack -e 40 -c 0 -i 22 -a 0 -S 0 -y {-1 -1}
r -t 1.1695 -s 1 -d 2 -p tcp -e 1000 -c 0 -i 16 -a 0 -S 0 -y {9 9}
+ -t 1.1695 -s 2 -d 3 -p tcp -e 1000 -c 0 -i 16 -a 0 -S 0 -y {9 9}
- -t 1.1695 -s 2 -d 3 -p tcp -e 1000 -c 0 -i 16 -a 0 -S 0 -y {9 9}
h -t 1.1695 -s 2 -d 3 -p tcp -e 1000 -c 0 -i 16 -a 0 -S 0 -y {-1 -1}
r -t 1.1751 -s 2 -d 3 -p tcp -e 1000 -c 0 -i 15 -a 0 -S 0 -y {8 8}
+ -t 1.1751 -s 3 -d 2 -p ack -e 40 -c 0 -i 23 -a 0 -S 0 -y {8 8}
- -t 1.1751 -s 3 -d 2 -p ack -e 40 -c 0 -i 23 -a 0 -S 0 -y {8 8}
h -t 1.1751 -s 3 -d 2 -p ack -e 40 -c 0 -i 23 -a 0 -S 0 -y {-1 -1}
r -t 1.17917 -s 3 -d 2 -p ack -e 40 -c 0 -i 22 -a 0 -S 0 -y {7 7}
+ -t 1.17917 -s 2 -d 1 -p ack -e 40 -c 0 -i 22 -a 0 -S 0 -y {7 7}
- -t 1.17917 -s 2 -d 1 -p ack -e 40 -c 0 -i 22 -a 0 -S 0 -y {7 7}
h -t 1.17917 -s 2 -d 1 -p ack -e 40 -c 0 -i 22 -a 0 -S 0 -y {-1 -1}
r -t 1.1855 -s 1 -d 2 -p tcp -e 1000 -c 0 -i 17 -a 0 -S 0 -y {10 10}
+ -t 1.1855 -s 2 -d 3 -p tcp -e 1000 -c 0 -i 17 -a 0 -S 0 -y {10 10}
- -t 1.1855 -s 2 -d 3 -p tcp -e 1000 -c 0 -i 17 -a 0 -S 0 -y {10 10}
h -t 1.1855 -s 2 -d 3 -p tcp -e 1000 -c 0 -i 17 -a 0 -S 0 -y {-1 -1}
r -t 1.1911 -s 2 -d 3 -p tcp -e 1000 -c 0 -i 16 -a 0 -S 0 -y {9 9}
+ -t 1.1911 -s 3 -d 2 -p ack -e 40 -c 0 -i 24 -a 0 -S 0 -y {9 9}
- -t 1.1911 -s 3 -d 2 -p ack -e 40 -c 0 -i 24 -a 0 -S 0 -y {9 9}
h -t 1.1911 -s 3 -d 2 -p ack -e 40 -c 0 -i 24 -a 0 -S 0 -y {-1 -1}
r -t 1.19517 -s 3 -d 2 -p ack -e 40 -c 0 -i 23 -a 0 -S 0 -y {8 8}
+ -t 1.19517 -s 2 -d 1 -p ack -e 40 -c 0 -i 23 -a 0 -S 0 -y {8 8}
- -t 1.19517 -s 2 -d 1 -p ack -e 40 -c 0 -i 23 -a 0 -S 0 -y {8 8}
h -t 1.19517 -s 2 -d 1 -p ack -e 40 -c 0 -i 23 -a 0 -S 0 -y {-1 -1}
r -t 1.2015 -s 1 -d 2 -p tcp -e 1000 -c 0 -i 18 -a 0 -S 0 -y {11 11}
+ -t 1.2015 -s 2 -d 3 -p tcp -e 1000 -c 0 -i 18 -a 0 -S 0 -y {11 11}
- -t 1.2015 -s 2 -d 3 -p tcp -e 1000 -c 0 -i 18 -a 0 -S 0 -y {11 11}
h -t 1.2015 -s 2 -d 3 -p tcp -e 1000 -c 0 -i 18 -a 0 -S 0 -y {-1 -1}
r -t 1.2071 -s 2 -d 3 -p tcp -e 1000 -c 0 -i 17 -a 0 -S 0 -y {10 10}
+ -t 1.2071 -s 3 -d 2 -p ack -e 40 -c 0 -i 25 -a 0 -S 0 -y {10 10}
- -t 1.2071 -s 3 -d 2 -p ack -e 40 -c 0 -i 25 -a 0 -S 0 -y {10 10}
h -t 1.2071 -s 3 -d 2 -p ack -e 40 -c 0 -i 25 -a 0 -S 0 -y {-1 -1}
r -t 1.21117 -s 3 -d 2 -p ack -e 40 -c 0 -i 24 -a 0 -S 0 -y {9 9}
+ -t 1.21117 -s 2 -d 1 -p ack -e 40 -c 0 -i 24 -a 0 -S 0 -y {9 9}
- -t 1.21117 -s 2 -d 1 -p ack -e 40 -c 0 -i 24 -a 0 -S 0 -y {9 9}
h -t 1.21117 -s 2 -d 1 -p ack -e 40 -c 0 -i 24 -a 0 -S 0 -y {-1 -1}
r -t 1.2175 -s 1 -d 2 -p tcp -e 1000 -c 0 -i 19 -a 0 -S 0 -y {12 12}
+ -t 1.2175 -s 2 -d 3 -p tcp -e 1000 -c 0 -i 19 -a 0 -S 0 -y {12 12}
- -t 1.2175 -s 2 -d 3 -p tcp -e 1000 -c 0 -i 19 -a 0 -S 0 -y {12 12}
h -t 1.2175 -s 2 -d 3 -p tcp -e 1000 -c 0 -i 19 -a 0 -S 0 -y {-1 -1}
r -t 1.2231 -s 2 -d 3 -p tcp -e 1000 -c 0 -i 18 -a 0 -S 0 -y {11 11}
+ -t 1.2231 -s 3 -d 2 -p ack -e 40 -c 0 -i 26 -a 0 -S 0 -y {11 11}
- -t 1.2231 -s 3 -d 2 -p ack -e 40 -c 0 -i 26 -a 0 -S 0 -y {11 11}
h -t 1.2231 -s 3 -d 2 -p ack -e 40 -c 0 -i 26 -a 0 -S 0 -y {-1 -1}
r -t 1.22717 -s 3 -d 2 -p ack -e 40 -c 0 -i 25 -a 0 -S 0 -y {10 10}
+ -t 1.22717 -s 2 -d 1 -p ack -e 40 -c 0 -i 25 -a 0 -S 0 -y {10 10}
- -t 1.22717 -s 2 -d 1 -p ack -e 40 -c 0 -i 25 -a 0 -S 0 -y {10 10}
h -t 1.22717 -s 2 -d 1 -p ack -e 40 -c 0 -i 25 -a 0 -S 0 -y {-1 -1}
r -t 1.2335 -s 1 -d 2 -p tcp -e 1000 -c 0 -i 20 -a 0 -S 0 -y {13 13}
+ -t 1.2335 -s 2 -d 3 -p tcp -e 1000 -c 0 -i 20 -a 0 -S 0 -y {13 13}
- -t 1.2335 -s 2 -d 3 -p tcp -e 1000 -c 0 -i 20 -a 0 -S 0 -y {13 13}
h -t 1.2335 -s 2 -d 3 -p tcp -e 1000 -c 0 -i 20 -a 0 -S 0 -y {-1 -1}
r -t 1.2391 -s 2 -d 3 -p tcp -e 1000 -c 0 -i 19 -a 0 -S 0 -y {12 12}
+ -t 1.2391 -s 3 -d 2 -p ack -e 40 -c 0 -i 27 -a 0 -S 0 -y {12 12}
- -t 1.2391 -s 3 -d 2 -p ack -e 40 -c 0 -i 27 -a 0 -S 0 -y {12 12}
h -t 1.2391 -s 3 -d 2 -p ack -e 40 -c 0 -i 27 -a 0 -S 0 -y {-1 -1}
r -t 1.24317 -s 3 -d 2 -p ack -e 40 -c 0 -i 26 -a 0 -S 0 -y {11 11}
+ -t 1.24317 -s 2 -d 1 -p ack -e 40 -c 0 -i 26 -a 0 -S 0 -y {11 11}
- -t 1.24317 -s 2 -d 1 -p ack -e 40 -c 0 -i 26 -a 0 -S 0 -y {11 11}
h -t 1.24317 -s 2 -d 1 -p ack -e 40 -c 0 -i 26 -a 0 -S 0 -y {-1 -1}
r -t 1.2495 -s 1 -d 2 -p tcp -e 1000 -c 0 -i 21 -a 0 -S 0 -y {14 14}
+ -t 1.2495 -s 2 -d 3 -p tcp -e 1000 -c 0 -i 21 -a 0 -S 0 -y {14 14}
- -t 1.2495 -s 2 -d 3 -p tcp -e 1000 -c 0 -i 21 -a 0 -S 0 -y {14 14}
h -t 1.2495 -s 2 -d 3 -p tcp -e 1000 -c 0 -i 21 -a 0 -S 0 -y {-1 -1}
r -t 1.2551 -s 2 -d 3 -p tcp -e 1000 -c 0 -i 20 -a 0 -S 0 -y {13 13}
+ -t 1.2551 -s 3 -d 2 -p ack -e 40 -c 0 -i 28 -a 0 -S 0 -y {13 13}
- -t 1.2551 -s 3 -d 2 -p ack -e 40 -c 0 -i 28 -a 0 -S 0 -y {13 13}
h -t 1.2551 -s 3 -d 2 -p ack -e 40 -c 0 -i 28 -a 0 -S 0 -y {-1 -1}
r -t 1.25917 -s 3 -d 2 -p ack -e 40 -c 0 -i 27 -a 0 -S 0 -y {12 12}
+ -t 1.25917 -s 2 -d 1 -p ack -e 40 -c 0 -i 27 -a 0 -S 0 -y {12 12}
- -t 1.25917 -s 2 -d 1 -p ack -e 40 -c 0 -i 27 -a 0 -S 0 -y {12 12}
h -t 1.25917 -s 2 -d 1 -p ack -e 40 -c 0 -i 27 -a 0 -S 0 -y {-1 -1}
r -t 1.2711 -s 2 -d 3 -p tcp -e 1000 -c 0 -i 21 -a 0 -S 0 -y {14 14}
+ -t 1.2711 -s 3 -d 2 -p ack -e 40 -c 0 -i 29 -a 0 -S 0 -y {14 14}
- -t 1.2711 -s 3 -d 2 -p ack -e 40 -c 0 -i 29 -a 0 -S 0 -y {14 14}
h -t 1.2711 -s 3 -d 2 -p ack -e 40 -c 0 -i 29 -a 0 -S 0 -y {-1 -1}
r -t 1.27517 -s 3 -d 2 -p ack -e 40 -c 0 -i 28 -a 0 -S 0 -y {13 13}
+ -t 1.27517 -s 2 -d 1 -p ack -e 40 -c 0 -i 28 -a 0 -S 0 -y {13 13}
- -t 1.27517 -s 2 -d 1 -p ack -e 40 -c 0 -i 28 -a 0 -S 0 -y {13 13}
h -t 1.27517 -s 2 -d 1 -p ack -e 40 -c 0 -i 28 -a 0 -S 0 -y {-1 -1}
r -t 1.27981 -s 2 -d 1 -p ack -e 40 -c 0 -i 22 -a 0 -S 0 -y {7 7}
+ -t 1.27981 -s 1 -d 0 -p ack -e 40 -c 0 -i 22 -a 0 -S 0 -y {7 7}
- -t 1.27981 -s 1 -d 0 -p ack -e 40 -c 0 -i 22 -a 0 -S 0 -f 0 -m 1 -y {7 7}
h -t 1.27981 -s 1 -d 0 -p ack -e 40 -c 0 -i 22 -a 0 -S 0 -y {-1 -1}
r -t 1.29117 -s 3 -d 2 -p ack -e 40 -c 0 -i 29 -a 0 -S 0 -y {14 14}
+ -t 1.29117 -s 2 -d 1 -p ack -e 40 -c 0 -i 29 -a 0 -S 0 -y {14 14}
- -t 1.29117 -s 2 -d 1 -p ack -e 40 -c 0 -i 29 -a 0 -S 0 -y {14 14}
h -t 1.29117 -s 2 -d 1 -p ack -e 40 -c 0 -i 29 -a 0 -S 0 -y {-1 -1}
r -t 1.29581 -s 2 -d 1 -p ack -e 40 -c 0 -i 23 -a 0 -S 0 -y {8 8}
+ -t 1.29581 -s 1 -d 0 -p ack -e 40 -c 0 -i 23 -a 0 -S 0 -y {8 8}
- -t 1.29581 -s 1 -d 0 -p ack -e 40 -c 0 -i 23 -a 0 -S 0 -f 0 -m 1 -y {8 8}
h -t 1.29581 -s 1 -d 0 -p ack -e 40 -c 0 -i 23 -a 0 -S 0 -y {-1 -1}
r -t 1.29987 -s 1 -d 0 -p ack -e 40 -c 0 -i 22 -a 0 -S 0 -y {7 7}
f -t 1.29987200000000014 -s 0 -d 3 -n cwnd_ -a tcp -v 9.000000 -o 8.000000 -T v
+ -t 1.29987 -s 0 -d 1 -p tcp -e 1000 -c 0 -i 30 -a 0 -S 0 -f 0 -m 0 -y {15 15}
- -t 1.29987 -s 0 -d 1 -p tcp -e 1000 -c 0 -i 30 -a 0 -S 0 -y {15 15}
h -t 1.29987 -s 0 -d 1 -p tcp -e 1000 -c 0 -i 30 -a 0 -S 0 -y {-1 -1}
+ -t 1.29987 -s 0 -d 1 -p tcp -e 1000 -c 0 -i 31 -a 0 -S 0 -f 0 -m 0 -y {16 16}
- -t 1.30147 -s 0 -d 1 -p tcp -e 1000 -c 0 -i 31 -a 0 -S 0 -y {16 16}
h -t 1.30147 -s 0 -d 1 -p tcp -e 1000 -c 0 -i 31 -a 0 -S 0 -y {-1 -1}
r -t 1.31181 -s 2 -d 1 -p ack -e 40 -c 0 -i 24 -a 0 -S 0 -y {9 9}
+ -t 1.31181 -s 1 -d 0 -p ack -e 40 -c 0 -i 24 -a 0 -S 0 -y {9 9}
- -t 1.31181 -s 1 -d 0 -p ack -e 40 -c 0 -i 24 -a 0 -S 0 -f 0 -m 1 -y {9 9}
h -t 1.31181 -s 1 -d 0 -p ack -e 40 -c 0 -i 24 -a 0 -S 0 -y {-1 -1}
r -t 1.31587 -s 1 -d 0 -p ack -e 40 -c 0 -i 23 -a 0 -S 0 -y {8 8}
f -t 1.31587200000000015 -s 0 -d 3 -n cwnd_ -a tcp -v 10.000000 -o 9.000000 -T v
+ -t 1.31587 -s 0 -d 1 -p tcp -e 1000 -c 0 -i 32 -a 0 -S 0 -f 0 -m 0 -y {17 17}
- -t 1.31587 -s 0 -d 1 -p tcp -e 1000 -c 0 -i 32 -a 0 -S 0 -y {17 17}
h -t 1.31587 -s 0 -d 1 -p tcp -e 1000 -c 0 -i 32 -a 0 -S 0 -y {-1 -1}
+ -t 1.31587 -s 0 -d 1 -p tcp -e 1000 -c 0 -i 33 -a 0 -S 0 -f 0 -m 0 -y {18 18}
- -t 1.31747 -s 0 -d 1 -p tcp -e 1000 -c 0 -i 33 -a 0 -S 0 -y {18 18}
h -t 1.31747 -s 0 -d 1 -p tcp -e 1000 -c 0 -i 33 -a 0 -S 0 -y {-1 -1}
r -t 1.32147 -s 0 -d 1 -p tcp -e 1000 -c 0 -i 30 -a 0 -S 0 -y {15 15}
+ -t 1.32147 -s 1 -d 2 -p tcp -e 1000 -c 0 -i 30 -a 0 -S 0 -y {15 15}
- -t 1.32147 -s 1 -d 2 -p tcp -e 1000 -c 0 -i 30 -a 0 -S 0 -y {15 15}
h -t 1.32147 -s 1 -d 2 -p tcp -e 1000 -c 0 -i 30 -a 0 -S 0 -y {-1 -1}
r -t 1.32307 -s 0 -d 1 -p tcp -e 1000 -c 0 -i 31 -a 0 -S 0 -y {16 16}
+ -t 1.32307 -s 1 -d 2 -p tcp -e 1000 -c 0 -i 31 -a 0 -S 0 -y {16 16}
r -t 1.32781 -s 2 -d 1 -p ack -e 40 -c 0 -i 25 -a 0 -S 0 -y {10 10}
+ -t 1.32781 -s 1 -d 0 -p ack -e 40 -c 0 -i 25 -a 0 -S 0 -y {10 10}
- -t 1.32781 -s 1 -d 0 -p ack -e 40 -c 0 -i 25 -a 0 -S 0 -f 0 -m 1 -y {10 10}
h -t 1.32781 -s 1 -d 0 -p ack -e 40 -c 0 -i 25 -a 0 -S 0 -y {-1 -1}
r -t 1.33187 -s 1 -d 0 -p ack -e 40 -c 0 -i 24 -a 0 -S 0 -y {9 9}
f -t 1.33187200000000017 -s 0 -d 3 -n cwnd_ -a tcp -v 11.000000 -o 10.000000 -T v
+ -t 1.33187 -s 0 -d 1 -p tcp -e 1000 -c 0 -i 34 -a 0 -S 0 -f 0 -m 0 -y {19 19}
- -t 1.33187 -s 0 -d 1 -p tcp -e 1000 -c 0 -i 34 -a 0 -S 0 -y {19 19}
h -t 1.33187 -s 0 -d 1 -p tcp -e 1000 -c 0 -i 34 -a 0 -S 0 -y {-1 -1}
+ -t 1.33187 -s 0 -d 1 -p tcp -e 1000 -c 0 -i 35 -a 0 -S 0 -f 0 -m 0 -y {20 20}
- -t 1.33347 -s 0 -d 1 -p tcp -e 1000 -c 0 -i 35 -a 0 -S 0 -y {20 20}
h -t 1.33347 -s 0 -d 1 -p tcp -e 1000 -c 0 -i 35 -a 0 -S 0 -y {-1 -1}
r -t 1.33747 -s 0 -d 1 -p tcp -e 1000 -c 0 -i 32 -a 0 -S 0 -y {17 17}
+ -t 1.33747 -s 1 -d 2 -p tcp -e 1000 -c 0 -i 32 -a 0 -S 0 -y {17 17}
- -t 1.33747 -s 1 -d 2 -p tcp -e 1000 -c 0 -i 31 -a 0 -S 0 -y {16 16}
h -t 1.33747 -s 1 -d 2 -p tcp -e 1000 -c 0 -i 31 -a 0 -S 0 -y {-1 -1}
r -t 1.33907 -s 0 -d 1 -p tcp -e 1000 -c 0 -i 33 -a 0 -S 0 -y {18 18}
+ -t 1.33907 -s 1 -d 2 -p tcp -e 1000 -c 0 -i 33 -a 0 -S 0 -y {18 18}
r -t 1.34381 -s 2 -d 1 -p ack -e 40 -c 0 -i 26 -a 0 -S 0 -y {11 11}
+ -t 1.34381 -s 1 -d 0 -p ack -e 40 -c 0 -i 26 -a 0 -S 0 -y {11 11}
- -t 1.34381 -s 1 -d 0 -p ack -e 40 -c 0 -i 26 -a 0 -S 0 -f 0 -m 1 -y {11 11}
h -t 1.34381 -s 1 -d 0 -p ack -e 40 -c 0 -i 26 -a 0 -S 0 -y {-1 -1}
r -t 1.34787 -s 1 -d 0 -p ack -e 40 -c 0 -i 25 -a 0 -S 0 -y {10 10}
f -t 1.34787200000000018 -s 0 -d 3 -n cwnd_ -a tcp -v 12.000000 -o 11.000000 -T v
+ -t 1.34787 -s 0 -d 1 -p tcp -e 1000 -c 0 -i 36 -a 0 -S 0 -f 0 -m 0 -y {21 21}
- -t 1.34787 -s 0 -d 1 -p tcp -e 1000 -c 0 -i 36 -a 0 -S 0 -y {21 21}
h -t 1.34787 -s 0 -d 1 -p tcp -e 1000 -c 0 -i 36 -a 0 -S 0 -y {-1 -1}
+ -t 1.34787 -s 0 -d 1 -p tcp -e 1000 -c 0 -i 37 -a 0 -S 0 -f 0 -m 0 -y {22 22}
- -t 1.34947 -s 0 -d 1 -p tcp -e 1000 -c 0 -i 37 -a 0 -S 0 -y {22 22}
h -t 1.34947 -s 0 -d 1 -p tcp -e 1000 -c 0 -i 37 -a 0 -S 0 -y {-1 -1}
r -t 1.35347 -s 0 -d 1 -p tcp -e 1000 -c 0 -i 34 -a 0 -S 0 -y {19 19}
+ -t 1.35347 -s 1 -d 2 -p tcp -e 1000 -c 0 -i 34 -a 0 -S 0 -y {19 19}
- -t 1.35347 -s 1 -d 2 -p tcp -e 1000 -c 0 -i 32 -a 0 -S 0 -y {17 17}
h -t 1.35347 -s 1 -d 2 -p tcp -e 1000 -c 0 -i 32 -a 0 -S 0 -y {-1 -1}
r -t 1.35507 -s 0 -d 1 -p tcp -e 1000 -c 0 -i 35 -a 0 -S 0 -y {20 20}
+ -t 1.35507 -s 1 -d 2 -p tcp -e 1000 -c 0 -i 35 -a 0 -S 0 -y {20 20}
r -t 1.35981 -s 2 -d 1 -p ack -e 40 -c 0 -i 27 -a 0 -S 0 -y {12 12}
+ -t 1.35981 -s 1 -d 0 -p ack -e 40 -c 0 -i 27 -a 0 -S 0 -y {12 12}
- -t 1.35981 -s 1 -d 0 -p ack -e 40 -c 0 -i 27 -a 0 -S 0 -f 0 -m 1 -y {12 12}
h -t 1.35981 -s 1 -d 0 -p ack -e 40 -c 0 -i 27 -a 0 -S 0 -y {-1 -1}
r -t 1.36387 -s 1 -d 0 -p ack -e 40 -c 0 -i 26 -a 0 -S 0 -y {11 11}
f -t 1.36387200000000020 -s 0 -d 3 -n cwnd_ -a tcp -v 13.000000 -o 12.000000 -T v
+ -t 1.36387 -s 0 -d 1 -p tcp -e 1000 -c 0 -i 38 -a 0 -S 0 -f 0 -m 0 -y {23 23}
- -t 1.36387 -s 0 -d 1 -p tcp -e 1000 -c 0 -i 38 -a 0 -S 0 -y {23 23}
h -t 1.36387 -s 0 -d 1 -p tcp -e 1000 -c 0 -i 38 -a 0 -S 0 -y {-1 -1}
+ -t 1.36387 -s 0 -d 1 -p tcp -e 1000 -c 0 -i 39 -a 0 -S 0 -f 0 -m 0 -y {24 24}
- -t 1.36547 -s 0 -d 1 -p tcp -e 1000 -c 0 -i 39 -a 0 -S 0 -y {24 24}
h -t 1.36547 -s 0 -d 1 -p tcp -e 1000 -c 0 -i 39 -a 0 -S 0 -y {-1 -1}
r -t 1.36947 -s 0 -d 1 -p tcp -e 1000 -c 0 -i 36 -a 0 -S 0 -y {21 21}
+ -t 1.36947 -s 1 -d 2 -p tcp -e 1000 -c 0 -i 36 -a 0 -S 0 -y {21 21}
- -t 1.36947 -s 1 -d 2 -p tcp -e 1000 -c 0 -i 33 -a 0 -S 0 -y {18 18}
h -t 1.36947 -s 1 -d 2 -p tcp -e 1000 -c 0 -i 33 -a 0 -S 0 -y {-1 -1}
r -t 1.37107 -s 0 -d 1 -p tcp -e 1000 -c 0 -i 37 -a 0 -S 0 -y {22 22}
+ -t 1.37107 -s 1 -d 2 -p tcp -e 1000 -c 0 -i 37 -a 0 -S 0 -y {22 22}
r -t 1.37581 -s 2 -d 1 -p ack -e 40 -c 0 -i 28 -a 0 -S 0 -y {13 13}
+ -t 1.37581 -s 1 -d 0 -p ack -e 40 -c 0 -i 28 -a 0 -S 0 -y {13 13}
- -t 1.37581 -s 1 -d 0 -p ack -e 40 -c 0 -i 28 -a 0 -S 0 -f 0 -m 1 -y {13 13}