W -t * -x 670 -y 670
n -t * -s 0  -x 143.43750921878001 -y 94.217567273200004 -Z 0 -z 20  -v circle -c black
n -t * -s 1  -x 304.65324424678403 -y 167.07632596983501 -Z 0 -z 20  -v circle -c black
n -t * -s 2  -x 81.810723227699 -y 152.82536050561001 -Z 0 -z 20  -v circle -c black
n -t * -s 3  -x 325.834153339995 -y 354.615563074325 -Z 0 -z 20  -v circle -c black
n -t * -s 4  -x 23.768638624379001 -y 159.50938100993099 -Z 0 -z 20  -v circle -c black
V -t * -v 1.0a5 -a 0
A -t * -n 1 -p 0 -o 0xffffffff -c 31 -a 1
A -t * -h 1 -m 2147483647 -s 0
+ -t 82.557023746 -s 2 -d -1 -p cbr -e 512 -c 2 -a 0 -i 0 -k AGT 
- -t 82.557023746 -s 2 -d -1 -p cbr -e 512 -c 2 -a 0 -i 0 -k AGT
n -t 82.557023746 -s 2 -S COLOR -c green -o black
h -t 82.557023746 -s 2 -d -1 -p cbr -e 512 -c 2 -a 0 -i 0 -k AGT
+ -t 82.561822398 -s 2 -d -1 -p DSR -e 76 -c 2 -a 0 -i 1 -k MAC 
- -t 82.561822398 -s 2 -d -1 -p DSR -e 76 -c 2 -a 0 -i 1 -k MAC
n -t 82.561822398 -s 2 -S COLOR -c green -o black
h -t 82.561822398 -s 2 -d -1 -p DSR -e 76 -c 2 -a 0 -i 1 -k MAC
n -t 82.562126593 -s 4 -S COLOR -c green -o black
r -t 82.562126593 -s 4 -d -1 -p DSR -e 24 -c 2 -a 0 -i 1 -k MAC
n -t 82.562126682 -s 0 -S COLOR -c green -o black
r -t 82.562126682 -s 0 -d -1 -p DSR -e 24 -c 2 -a 0 -i 1 -k MAC
n -t 82.562127143 -s 1 -S COLOR -c green -o black
r -t 82.562127143 -s 1 -d -1 -p DSR -e 24 -c 2 -a 0 -i 1 -k MAC
+ -t 82.630689289 -s 2 -d -1 -p DSR -e 76 -c 2 -a 0 -i 3 -k MAC 
- -t 82.630689289 -s 2 -d -1 -p DSR -e 76 -c 2 -a 0 -i 3 -k MAC
n -t 82.630689289 -s 2 -S COLOR -c green -o black
h -t 82.630689289 -s 2 -d -1 -p DSR -e 76 -c 2 -a 0 -i 3 -k MAC
n -t 82.630993484 -s 4 -S COLOR -c green -o black
r -t 82.630993484 -s 4 -d -1 -p DSR -e 24 -c 2 -a 0 -i 3 -k MAC
n -t 82.630993573 -s 0 -S COLOR -c green -o black
r -t 82.630993573 -s 0 -d -1 -p DSR -e 24 -c 2 -a 0 -i 3 -k MAC
n -t 82.630994034 -s 1 -S COLOR -c green -o black
r -t 82.630994034 -s 1 -d -1 -p DSR -e 24 -c 2 -a 0 -i 3 -k MAC
+ -t 82.631291342 -s 1 -d -1 -p DSR -e 84 -c 2 -a 0 -i 3 -k MAC 
- -t 82.631291342 -s 1 -d -1 -p DSR -e 84 -c 2 -a 0 -i 3 -k MAC
n -t 82.631291342 -s 1 -S COLOR -c green -o black
h -t 82.631291342 -s 1 -d -1 -p DSR -e 84 -c 2 -a 0 -i 3 -k MAC
n -t 82.631627931 -s 0 -S COLOR -c green -o black
r -t 82.631627931 -s 0 -d -1 -p DSR -e 32 -c 2 -a 0 -i 3 -k MAC
n -t 82.631627971 -s 3 -S COLOR -c green -o black
r -t 82.631627971 -s 3 -d -1 -p DSR -e 32 -c 2 -a 0 -i 3 -k MAC
n -t 82.631628086 -s 2 -S COLOR -c green -o black
r -t 82.631628086 -s 2 -d -1 -p DSR -e 32 -c 2 -a 0 -i 3 -k MAC
n -t 82.631628278 -s 4 -S COLOR -c green -o black
r -t 82.631628278 -s 4 -d -1 -p DSR -e 32 -c 2 -a 0 -i 3 -k MAC
+ -t 82.633449411 -s 4 -d -1 -p DSR -e 84 -c 2 -a 0 -i 3 -k MAC 
- -t 82.633449411 -s 4 -d -1 -p DSR -e 84 -c 2 -a 0 -i 3 -k MAC
n -t 82.633449411 -s 4 -S COLOR -c green -o black
h -t 82.633449411 -s 4 -d -1 -p DSR -e 84 -c 2 -a 0 -i 3 -k MAC
n -t 82.633785605 -s 2 -S COLOR -c green -o black
r -t 82.633785605 -s 2 -d -1 -p DSR -e 32 -c 2 -a 0 -i 3 -k MAC
n -t 82.633785865 -s 0 -S COLOR -c green -o black
r -t 82.633785865 -s 0 -d -1 -p DSR -e 32 -c 2 -a 0 -i 3 -k MAC
n -t 82.633786347 -s 1 -S COLOR -c green -o black
r -t 82.633786347 -s 1 -d -1 -p DSR -e 32 -c 2 -a 0 -i 3 -k MAC
+ -t 82.637151180 -s 0 -d -1 -p DSR -e 84 -c 2 -a 0 -i 3 -k MAC 
- -t 82.637151180 -s 0 -d -1 -p DSR -e 84 -c 2 -a 0 -i 3 -k MAC
n -t 82.637151180 -s 0 -S COLOR -c green -o black
h -t 82.637151180 -s 0 -d -1 -p DSR -e 84 -c 2 -a 0 -i 3 -k MAC
n -t 82.637487463 -s 2 -S COLOR -c green -o black
r -t 82.637487463 -s 2 -d -1 -p DSR -e 32 -c 2 -a 0 -i 3 -k MAC
n -t 82.637487634 -s 4 -S COLOR -c green -o black
r -t 82.637487634 -s 4 -d -1 -p DSR -e 32 -c 2 -a 0 -i 3 -k MAC
n -t 82.637487769 -s 1 -S COLOR -c green -o black
r -t 82.637487769 -s 1 -d -1 -p DSR -e 32 -c 2 -a 0 -i 3 -k MAC
+ -t 82.640587592 -s 3 -d -1 -p ARP -e 80 -c 2 -a 0 -i 0 -k MAC 
- -t 82.640587592 -s 3 -d -1 -p ARP -e 80 -c 2 -a 0 -i 0 -k MAC
n -t 82.640587592 -s 3 -S COLOR -c green -o black
h -t 82.640587592 -s 3 -d -1 -p ARP -e 80 -c 2 -a 0 -i 0 -k MAC
n -t 82.640908221 -s 1 -S COLOR -c green -o black
r -t 82.640908221 -s 1 -d -1 -p ARP -e 28 -c 2 -a 0 -i 0 -k MAC
+ -t 82.640963221 -s 1 -d -1 -p MAC -e 44 -c 2 -a 0 -i 0 -k MAC 
- -t 82.640963221 -s 1 -d -1 -p MAC -e 44 -c 2 -a 0 -i 0 -k MAC
n -t 82.640963221 -s 1 -S COLOR -c green -o black
h -t 82.640963221 -s 1 -d -1 -p MAC -e 44 -c 2 -a 0 -i 0 -k MAC
n -t 82.641139850 -s 3 -S COLOR -c green -o black
r -t 82.641139850 -s 3 -d -1 -p MAC -e 44 -c 2 -a 0 -i 0 -k MAC
+ -t 82.641149850 -s 3 -d -1 -p MAC -e 38 -c 2 -a 0 -i 0 -k MAC 
- -t 82.641149850 -s 3 -d -1 -p MAC -e 38 -c 2 -a 0 -i 0 -k MAC
n -t 82.641149850 -s 3 -S COLOR -c green -o black
h -t 82.641149850 -s 3 -d -1 -p MAC -e 38 -c 2 -a 0 -i 0 -k MAC
n -t 82.641302479 -s 1 -S COLOR -c green -o black
r -t 82.641302479 -s 1 -d -1 -p MAC -e 38 -c 2 -a 0 -i 0 -k MAC
+ -t 82.641352479 -s 1 -d -1 -p ARP -e 80 -c 2 -a 0 -i 0 -k MAC 
- -t 82.641352479 -s 1 -d -1 -p ARP -e 80 -c 2 -a 0 -i 0 -k MAC
n -t 82.641352479 -s 1 -S COLOR -c green -o black
h -t 82.641352479 -s 1 -d -1 -p ARP -e 80 -c 2 -a 0 -i 0 -k MAC
n -t 82.641673108 -s 3 -S COLOR -c green -o black
r -t 82.641673108 -s 3 -d -1 -p ARP -e 28 -c 2 -a 0 -i 0 -k MAC
+ -t 82.641683108 -s 3 -d -1 -p MAC -e 38 -c 2 -a 0 -i 0 -k MAC 
- -t 82.641683108 -s 3 -d -1 -p MAC -e 38 -c 2 -a 0 -i 0 -k MAC
n -t 82.641683108 -s 3 -S COLOR -c green -o black
h -t 82.641683108 -s 3 -d -1 -p MAC -e 38 -c 2 -a 0 -i 0 -k MAC
n -t 82.641835737 -s 1 -S COLOR -c green -o black
r -t 82.641835737 -s 1 -d -1 -p MAC -e 38 -c 2 -a 0 -i 0 -k MAC
+ -t 82.642225108 -s 3 -d -1 -p MAC -e 44 -c 2 -a 0 -i 0 -k MAC 
- -t 82.642225108 -s 3 -d -1 -p MAC -e 44 -c 2 -a 0 -i 0 -k MAC
n -t 82.642225108 -s 3 -S COLOR -c green -o black
h -t 82.642225108 -s 3 -d -1 -p MAC -e 44 -c 2 -a 0 -i 0 -k MAC
n -t 82.642401737 -s 1 -S COLOR -c green -o black
r -t 82.642401737 -s 1 -d -1 -p MAC -e 44 -c 2 -a 0 -i 0 -k MAC
+ -t 82.642411737 -s 1 -d -1 -p MAC -e 38 -c 2 -a 0 -i 0 -k MAC 
- -t 82.642411737 -s 1 -d -1 -p MAC -e 38 -c 2 -a 0 -i 0 -k MAC
n -t 82.642411737 -s 1 -S COLOR -c green -o black
h -t 82.642411737 -s 1 -d -1 -p MAC -e 38 -c 2 -a 0 -i 0 -k MAC
n -t 82.642564366 -s 3 -S COLOR -c green -o black
r -t 82.642564366 -s 3 -d -1 -p MAC -e 38 -c 2 -a 0 -i 0 -k MAC
+ -t 82.642614366 -s 3 -d 1 -p DSR -e 96 -c 2 -a 0 -i 4 -k MAC 
- -t 82.642614366 -s 3 -d 1 -p DSR -e 96 -c 2 -a 0 -i 4 -k MAC
n -t 82.642614366 -s 3 -S COLOR -c green -o black
h -t 82.642614366 -s 3 -d 1 -p DSR -e 96 -c 2 -a 0 -i 4 -k MAC
n -t 82.642998995 -s 1 -S COLOR -c green -o black
r -t 82.642998995 -s 1 -d 1 -p DSR -e 44 -c 2 -a 0 -i 4 -k MAC
+ -t 82.643008995 -s 1 -d -1 -p MAC -e 38 -c 2 -a 0 -i 0 -k MAC 
- -t 82.643008995 -s 1 -d -1 -p MAC -e 38 -c 2 -a 0 -i 0 -k MAC
n -t 82.643008995 -s 1 -S COLOR -c green -o black
h -t 82.643008995 -s 1 -d -1 -p MAC -e 38 -c 2 -a 0 -i 0 -k MAC
n -t 82.643161625 -s 3 -S COLOR -c green -o black
r -t 82.643161625 -s 3 -d -1 -p MAC -e 38 -c 2 -a 0 -i 0 -k MAC
+ -t 82.643650995 -s 1 -d -1 -p ARP -e 80 -c 2 -a 0 -i 0 -k MAC 
- -t 82.643650995 -s 1 -d -1 -p ARP -e 80 -c 2 -a 0 -i 0 -k MAC
n -t 82.643650995 -s 1 -S COLOR -c green -o black
h -t 82.643650995 -s 1 -d -1 -p ARP -e 80 -c 2 -a 0 -i 0 -k MAC
n -t 82.643971585 -s 0 -S COLOR -c green -o black
r -t 82.643971585 -s 0 -d -1 -p ARP -e 28 -c 2 -a 0 -i 0 -k MAC
n -t 82.643971625 -s 3 -S COLOR -c green -o black
r -t 82.643971625 -s 3 -d -1 -p ARP -e 28 -c 2 -a 0 -i 0 -k MAC
n -t 82.643971740 -s 2 -S COLOR -c green -o black
r -t 82.643971740 -s 2 -d -1 -p ARP -e 28 -c 2 -a 0 -i 0 -k MAC
n -t 82.643971932 -s 4 -S COLOR -c green -o black
r -t 82.643971932 -s 4 -d -1 -p ARP -e 28 -c 2 -a 0 -i 0 -k MAC
+ -t 82.644026740 -s 2 -d -1 -p MAC -e 44 -c 2 -a 0 -i 0 -k MAC 
- -t 82.644026740 -s 2 -d -1 -p MAC -e 44 -c 2 -a 0 -i 0 -k MAC
n -t 82.644026740 -s 2 -S COLOR -c green -o black
h -t 82.644026740 -s 2 -d -1 -p MAC -e 44 -c 2 -a 0 -i 0 -k MAC
n -t 82.644203484 -s 1 -S COLOR -c green -o black
r -t 82.644203484 -s 1 -d -1 -p MAC -e 44 -c 2 -a 0 -i 0 -k MAC
+ -t 82.644213484 -s 1 -d -1 -p MAC -e 38 -c 2 -a 0 -i 0 -k MAC 
- -t 82.644213484 -s 1 -d -1 -p MAC -e 38 -c 2 -a 0 -i 0 -k MAC
n -t 82.644213484 -s 1 -S COLOR -c green -o black
h -t 82.644213484 -s 1 -d -1 -p MAC -e 38 -c 2 -a 0 -i 0 -k MAC
n -t 82.644366228 -s 2 -S COLOR -c green -o black
r -t 82.644366228 -s 2 -d -1 -p MAC -e 38 -c 2 -a 0 -i 0 -k MAC
+ -t 82.644416228 -s 2 -d -1 -p ARP -e 80 -c 2 -a 0 -i 0 -k MAC 
- -t 82.644416228 -s 2 -d -1 -p ARP -e 80 -c 2 -a 0 -i 0 -k MAC
n -t 82.644416228 -s 2 -S COLOR -c green -o black
h -t 82.644416228 -s 2 -d -1 -p ARP -e 80 -c 2 -a 0 -i 0 -k MAC
n -t 82.644736973 -s 1 -S COLOR -c green -o black
r -t 82.644736973 -s 1 -d -1 -p ARP -e 28 -c 2 -a 0 -i 0 -k MAC
+ -t 82.644746973 -s 1 -d -1 -p MAC -e 38 -c 2 -a 0 -i 0 -k MAC 
- -t 82.644746973 -s 1 -d -1 -p MAC -e 38 -c 2 -a 0 -i 0 -k MAC
n -t 82.644746973 -s 1 -S COLOR -c green -o black
h -t 82.644746973 -s 1 -d -1 -p MAC -e 38 -c 2 -a 0 -i 0 -k MAC
n -t 82.644899717 -s 2 -S COLOR -c green -o black
r -t 82.644899717 -s 2 -d -1 -p MAC -e 38 -c 2 -a 0 -i 0 -k MAC
+ -t 82.645388973 -s 1 -d -1 -p MAC -e 44 -c 2 -a 0 -i 0 -k MAC 
- -t 82.645388973 -s 1 -d -1 -p MAC -e 44 -c 2 -a 0 -i 0 -k MAC
n -t 82.645388973 -s 1 -S COLOR -c green -o black
h -t 82.645388973 -s 1 -d -1 -p MAC -e 44 -c 2 -a 0 -i 0 -k MAC
n -t 82.645565717 -s 2 -S COLOR -c green -o black
r -t 82.645565717 -s 2 -d -1 -p MAC -e 44 -c 2 -a 0 -i 0 -k MAC
+ -t 82.645575717 -s 2 -d -1 -p MAC -e 38 -c 2 -a 0 -i 0 -k MAC 
- -t 82.645575717 -s 2 -d -1 -p MAC -e 38 -c 2 -a 0 -i 0 -k MAC
n -t 82.645575717 -s 2 -S COLOR -c green -o black
h -t 82.645575717 -s 2 -d -1 -p MAC -e 38 -c 2 -a 0 -i 0 -k MAC
n -t 82.645728461 -s 1 -S COLOR -c green -o black
r -t 82.645728461 -s 1 -d -1 -p MAC -e 38 -c 2 -a 0 -i 0 -k MAC
+ -t 82.645778461 -s 1 -d 2 -p DSR -e 96 -c 2 -a 0 -i 4 -k MAC 
- -t 82.645778461 -s 1 -d 2 -p DSR -e 96 -c 2 -a 0 -i 4 -k MAC
n -t 82.645778461 -s 1 -S COLOR -c green -o black
h -t 82.645778461 -s 1 -d 2 -p DSR -e 96 -c 2 -a 0 -i 4 -k MAC
n -t 82.646163206 -s 2 -S COLOR -c green -o black
r -t 82.646163206 -s 2 -d 2 -p DSR -e 44 -c 2 -a 0 -i 4 -k MAC
+ -t 82.646173206 -s 2 -d -1 -p MAC -e 38 -c 2 -a 0 -i 0 -k MAC 
- -t 82.646173206 -s 2 -d -1 -p MAC -e 38 -c 2 -a 0 -i 0 -k MAC
n -t 82.646173206 -s 2 -S COLOR -c green -o black
h -t 82.646173206 -s 2 -d -1 -p MAC -e 38 -c 2 -a 0 -i 0 -k MAC
n -t 82.646325950 -s 1 -S COLOR -c green -o black
r -t 82.646325950 -s 1 -d -1 -p MAC -e 38 -c 2 -a 0 -i 0 -k MAC
+ -t 82.646935206 -s 2 -d -1 -p MAC -e 44 -c 2 -a 0 -i 0 -k MAC 
- -t 82.646935206 -s 2 -d -1 -p MAC -e 44 -c 2 -a 0 -i 0 -k MAC
n -t 82.646935206 -s 2 -S COLOR -c green -o black
h -t 82.646935206 -s 2 -d -1 -p MAC -e 44 -c 2 -a 0 -i 0 -k MAC
n -t 82.647111950 -s 1 -S COLOR -c green -o black
r -t 82.647111950 -s 1 -d -1 -p MAC -e 44 -c 2 -a 0 -i 0 -k MAC
+ -t 82.647121950 -s 1 -d -1 -p MAC -e 38 -c 2 -a 0 -i 0 -k MAC 
- -t 82.647121950 -s 1 -d -1 -p MAC -e 38 -c 2 -a 0 -i 0 -k MAC
n -t 82.647121950 -s 1 -S COLOR -c green -o black
h -t 82.647121950 -s 1 -d -1 -p MAC -e 38 -c 2 -a 0 -i 0 -k MAC
n -t 82.647274694 -s 2 -S COLOR -c green -o black
r -t 82.647274694 -s 2 -d -1 -p MAC -e 38 -c 2 -a 0 -i 0 -k MAC
+ -t 82.647324694 -s 2 -d 1 -p cbr -e 596 -c 2 -a 0 -i 0 -k MAC 
- -t 82.647324694 -s 2 -d 1 -p cbr -e 596 -c 2 -a 0 -i 0 -k MAC
n -t 82.647324694 -s 2 -S COLOR -c green -o black
h -t 82.647324694 -s 2 -d 1 -p cbr -e 596 -c 2 -a 0 -i 0 -k MAC
n -t 82.649709439 -s 1 -S COLOR -c green -o black
r -t 82.649709439 -s 1 -d 1 -p cbr -e 544 -c 2 -a 0 -i 0 -k MAC
+ -t 82.649719439 -s 1 -d -1 -p MAC -e 38 -c 2 -a 0 -i 0 -k MAC 
- -t 82.649719439 -s 1 -d -1 -p MAC -e 38 -c 2 -a 0 -i 0 -k MAC
n -t 82.649719439 -s 1 -S COLOR -c green -o black
h -t 82.649719439 -s 1 -d -1 -p MAC -e 38 -c 2 -a 0 -i 0 -k MAC
n -t 82.649872183 -s 2 -S COLOR -c green -o black
r -t 82.649872183 -s 2 -d -1 -p MAC -e 38 -c 2 -a 0 -i 0 -k MAC
+ -t 82.650301439 -s 1 -d -1 -p MAC -e 44 -c 2 -a 0 -i 0 -k MAC 
- -t 82.650301439 -s 1 -d -1 -p MAC -e 44 -c 2 -a 0 -i 0 -k MAC
n -t 82.650301439 -s 1 -S COLOR -c green -o black
h -t 82.650301439 -s 1 -d -1 -p MAC -e 44 -c 2 -a 0 -i 0 -k MAC
n -t 82.650478068 -s 3 -S COLOR -c green -o black
r -t 82.650478068 -s 3 -d -1 -p MAC -e 44 -c 2 -a 0 -i 0 -k MAC
+ -t 82.650488068 -s 3 -d -1 -p MAC -e 38 -c 2 -a 0 -i 0 -k MAC 
- -t 82.650488068 -s 3 -d -1 -p MAC -e 38 -c 2 -a 0 -i 0 -k MAC
n -t 82.650488068 -s 3 -S COLOR -c green -o black
h -t 82.650488068 -s 3 -d -1 -p MAC -e 38 -c 2 -a 0 -i 0 -k MAC
n -t 82.650640697 -s 1 -S COLOR -c green -o black
r -t 82.650640697 -s 1 -d -1 -p MAC -e 38 -c 2 -a 0 -i 0 -k MAC
+ -t 82.650690697 -s 1 -d 3 -p cbr -e 596 -c 2 -a 0 -i 0 -k MAC 
- -t 82.650690697 -s 1 -d 3 -p cbr -e 596 -c 2 -a 0 -i 0 -k MAC
n -t 82.650690697 -s 1 -S COLOR -c green -o black
h -t 82.650690697 -s 1 -d 3 -p cbr -e 596 -c 2 -a 0 -i 0 -k MAC
n -t 82.653075326 -s 3 -S COLOR -c green -o black
r -t 82.653075326 -s 3 -d 3 -p cbr -e 544 -c 2 -a 0 -i 0 -k MAC
+ -t 82.653085326 -s 3 -d -1 -p MAC -e 38 -c 2 -a 0 -i 0 -k MAC 
- -t 82.653085326 -s 3 -d -1 -p MAC -e 38 -c 2 -a 0 -i 0 -k MAC
n -t 82.653085326 -s 3 -S COLOR -c green -o black
h -t 82.653085326 -s 3 -d -1 -p MAC -e 38 -c 2 -a 0 -i 0 -k MAC
n -t 82.653100326 -s 3 -S COLOR -c green -o black
r -t 82.653100326 -s 3 -d 3 -p cbr -e 544 -c 2 -a 0 -i 0 -k AGT
n -t 82.653237955 -s 1 -S COLOR -c green -o black
r -t 82.653237955 -s 1 -d -1 -p MAC -e 38 -c 2 -a 0 -i 0 -k MAC
+ -t 83.641695347 -s 2 -d -1 -p cbr -e 512 -c 2 -a 0 -i 5 -k AGT 
- -t 83.641695347 -s 2 -d -1 -p cbr -e 512 -c 2 -a 0 -i 5 -k AGT
n -t 83.641695347 -s 2 -S COLOR -c green -o black
h -t 83.641695347 -s 2 -d -1 -p cbr -e 512 -c 2 -a 0 -i 5 -k AGT
+ -t 83.641770347 -s 2 -d -1 -p MAC -e 44 -c 2 -a 0 -i 0 -k MAC 
- -t 83.641770347 -s 2 -d -1 -p MAC -e 44 -c 2 -a 0 -i 0 -k MAC
n -t 83.641770347 -s 2 -S COLOR -c green -o black
h -t 83.641770347 -s 2 -d -1 -p MAC -e 44 -c 2 -a 0 -i 0 -k MAC
n -t 83.641947091 -s 1 -S COLOR -c green -o black
r -t 83.641947091 -s 1 -d -1 -p MAC -e 44 -c 2 -a 0 -i 0 -k MAC
+ -t 83.641957091 -s 1 -d -1 -p MAC -e 38 -c 2 -a 0 -i 0 -k MAC 
- -t 83.641957091 -s 1 -d -1 -p MAC -e 38 -c 2 -a 0 -i 0 -k MAC
n -t 83.641957091 -s 1 -S COLOR -c green -o black
h -t 83.641957091 -s 1 -d -1 -p MAC -e 38 -c 2 -a 0 -i 0 -k MAC
n -t 83.642109836 -s 2 -S COLOR -c green -o black
r -t 83.642109836 -s 2 -d -1 -p MAC -e 38 -c 2 -a 0 -i 0 -k MAC
+ -t 83.642159836 -s 2 -d 1 -p cbr -e 596 -c 2 -a 0 -i 5 -k MAC 
- -t 83.642159836 -s 2 -d 1 -p cbr -e 596 -c 2 -a 0 -i 5 -k MAC
n -t 83.642159836 -s 2 -S COLOR -c green -o black
h -t 83.642159836 -s 2 -d 1 -p cbr -e 596 -c 2 -a 0 -i 5 -k MAC
n -t 83.644544580 -s 1 -S COLOR -c green -o black
r -t 83.644544580 -s 1 -d 1 -p cbr -e 544 -c 2 -a 0 -i 5 -k MAC
+ -t 83.644554580 -s 1 -d -1 -p MAC -e 38 -c 2 -a 0 -i 0 -k MAC 
- -t 83.644554580 -s 1 -d -1 -p MAC -e 38 -c 2 -a 0 -i 0 -k MAC
n -t 83.644554580 -s 1 -S COLOR -c green -o black
h -t 83.644554580 -s 1 -d -1 -p MAC -e 38 -c 2 -a 0 -i 0 -k MAC
n -t 83.644707324 -s 2 -S COLOR -c green -o black
r -t 83.644707324 -s 2 -d -1 -p MAC -e 38 -c 2 -a 0 -i 0 -k MAC
+ -t 83.645296580 -s 1 -d -1 -p MAC -e 44 -c 2 -a 0 -i 0 -k MAC 
- -t 83.645296580 -s 1 -d -1 -p MAC -e 44 -c 2 -a 0 -i 0 -k MAC
n -t 83.645296580 -s 1 -S COLOR -c green -o black
h -t 83.645296580 -s 1 -d -1 -p MAC -e 44 -c 2 -a 0 -i 0 -k MAC
n -t 83.645473209 -s 3 -S COLOR -c green -o black
r -t 83.645473209 -s 3 -d -1 -p MAC -e 44 -c 2 -a 0 -i 0 -k MAC
+ -t 83.645483209 -s 3 -d -1 -p MAC -e 38 -c 2 -a 0 -i 0 -k MAC 
- -t 83.645483209 -s 3 -d -1 -p MAC -e 38 -c 2 -a 0 -i 0 -k MAC
n -t 83.645483209 -s 3 -S COLOR -c green -o black
h -t 83.645483209 -s 3 -d -1 -p MAC -e 38 -c 2 -a 0 -i 0 -k MAC
n -t 83.645635838 -s 1 -S COLOR -c green -o black
r -t 83.645635838 -s 1 -d -1 -p MAC -e 38 -c 2 -a 0 -i 0 -k MAC
+ -t 83.645685838 -s 1 -d 3 -p cbr -e 596 -c 2 -a 0 -i 5 -k MAC 
- -t 83.645685838 -s 1 -d 3 -p cbr -e 596 -c 2 -a 0 -i 5 -k MAC
n -t 83.645685838 -s 1 -S COLOR -c green -o black
h -t 83.645685838 -s 1 -d 3 -p cbr -e 596 -c 2 -a 0 -i 5 -k MAC
n -t 83.648070467 -s 3 -S COLOR -c green -o black
r -t 83.648070467 -s 3 -d 3 -p cbr -e 544 -c 2 -a 0 -i 5 -k MAC
+ -t 83.648080467 -s 3 -d -1 -p MAC -e 38 -c 2 -a 0 -i 0 -k MAC 
- -t 83.648080467 -s 3 -d -1 -p MAC -e 38 -c 2 -a 0 -i 0 -k MAC
n -t 83.648080467 -s 3 -S COLOR -c green -o black
h -t 83.648080467 -s 3 -d -1 -p MAC -e 38 -c 2 -a 0 -i 0 -k MAC
n -t 83.648095467 -s 3 -S COLOR -c green -o black
r -t 83.648095467 -s 3 -d 3 -p cbr -e 544 -c 2 -a 0 -i 5 -k AGT
n -t 83.648233096 -s 1 -S COLOR -c green -o black
r -t 83.648233096 -s 1 -d -1 -p MAC -e 38 -c 2 -a 0 -i 0 -k MAC
+ -t 85.217448169 -s 2 -d -1 -p cbr -e 512 -c 2 -a 0 -i 6 -k AGT 
- -t 85.217448169 -s 2 -d -1 -p cbr -e 512 -c 2 -a 0 -i 6 -k AGT
n -t 85.217448169 -s 2 -S COLOR -c green -o black
h -t 85.217448169 -s 2 -d -1 -p cbr -e 512 -c 2 -a 0 -i 6 -k AGT
+ -t 85.217523169 -s 2 -d -1 -p MAC -e 44 -c 2 -a 0 -i 0 -k MAC 
- -t 85.217523169 -s 2 -d -1 -p MAC -e 44 -c 2 -a 0 -i 0 -k MAC
n -t 85.217523169 -s 2 -S COLOR -c green -o black
h -t 85.217523169 -s 2 -d -1 -p MAC -e 44 -c 2 -a 0 -i 0 -k MAC
n -t 85.217699913 -s 1 -S COLOR -c green -o black
r -t 85.217699913 -s 1 -d -1 -p MAC -e 44 -c 2 -a 0 -i 0 -k MAC
+ -t 85.217709913 -s 1 -d -1 -p MAC -e 38 -c 2 -a 0 -i 0 -k MAC 
- -t 85.217709913 -s 1 -d -1 -p MAC -e 38 -c 2 -a 0 -i 0 -k MAC
n -t 85.217709913 -s 1 -S COLOR -c green -o black
h -t 85.217709913 -s 1 -d -1 -p MAC -e 38 -c 2 -a 0 -i 0 -k MAC
n -t 85.217862658 -s 2 -S COLOR -c green -o black
r -t 85.217862658 -s 2 -d -1 -p MAC -e 38 -c 2 -a 0 -i 0 -k MAC
+ -t 85.217912658 -s 2 -d 1 -p cbr -e 596 -c 2 -a 0 -i 6 -k MAC 
- -t 85.217912658 -s 2 -d 1 -p cbr -e 596 -c 2 -a 0 -i 6 -k MAC
n -t 85.217912658 -s 2 -S COLOR -c green -o black
h -t 85.217912658 -s 2 -d 1 -p cbr -e 596 -c 2 -a 0 -i 6 -k MAC
n -t 85.220297402 -s 1 -S COLOR -c green -o black
r -t 85.220297402 -s 1 -d 1 -p cbr -e 544 -c 2 -a 0 -i 6 -k MAC
+ -t 85.220307402 -s 1 -d -1 -p MAC -e 38 -c 2 -a 0 -i 0 -k MAC 
- -t 85.220307402 -s 1 -d -1 -p MAC -e 38 -c 2 -a 0 -i 0 -k MAC
n -t 85.220307402 -s 1 -S COLOR -c green -o black
h -t 85.220307402 -s 1 -d -1 -p MAC -e 38 -c 2 -a 0 -i 0 -k MAC
n -t 85.220460146 -s 2 -S COLOR -c green -o black
r -t 85.220460146 -s 2 -d -1 -p MAC -e 38 -c 2 -a 0 -i 0 -k MAC
+ -t 85.220629402 -s 1 -d -1 -p MAC -e 44 -c 2 -a 0 -i 0 -k MAC 
- -t 85.220629402 -s 1 -d -1 -p MAC -e 44 -c 2 -a 0 -i 0 -k MAC
n -t 85.220629402 -s 1 -S COLOR -c green -o black
h -t 85.220629402 -s 1 -d -1 -p MAC -e 44 -c 2 -a 0 -i 0 -k MAC
n -t 85.220806031 -s 3 -S COLOR -c green -o black
r -t 85.220806031 -s 3 -d -1 -p MAC -e 44 -c 2 -a 0 -i 0 -k MAC
+ -t 85.220816031 -s 3 -d -1 -p MAC -e 38 -c 2 -a 0 -i 0 -k MAC 
- -t 85.220816031 -s 3 -d -1 -p MAC -e 38 -c 2 -a 0 -i 0 -k MAC
n -t 85.220816031 -s 3 -S COLOR -c green -o black
h -t 85.220816031 -s 3 -d -1 -p MAC -e 38 -c 2 -a 0 -i 0 -k MAC
n -t 85.220968660 -s 1 -S COLOR -c green -o black
r -t 85.220968660 -s 1 -d -1 -p MAC -e 38 -c 2 -a 0 -i 0 -k MAC
+ -t 85.221018660 -s 1 -d 3 -p cbr -e 596 -c 2 -a 0 -i 6 -k MAC 
- -t 85.221018660 -s 1 -d 3 -p cbr -e 596 -c 2 -a 0 -i 6 -k MAC
n -t 85.221018660 -s 1 -S COLOR -c green -o black
h -t 85.221018660 -s 1 -d 3 -p cbr -e 596 -c 2 -a 0 -i 6 -k MAC
n -t 85.223403289 -s 3 -S COLOR -c green -o black
r -t 85.223403289 -s 3 -d 3 -p cbr -e 544 -c 2 -a 0 -i 6 -k MAC
+ -t 85.223413289 -s 3 -d -1 -p MAC -e 38 -c 2 -a 0 -i 0 -k MAC 
- -t 85.223413289 -s 3 -d -1 -p MAC -e 38 -c 2 -a 0 -i 0 -k MAC
n -t 85.223413289 -s 3 -S COLOR -c green -o black
h -t 85.223413289 -s 3 -d -1 -p MAC -e 38 -c 2 -a 0 -i 0 -k MAC
n -t 85.223428289 -s 3 -S COLOR -c green -o black
r -t 85.223428289 -s 3 -d 3 -p cbr -e 544 -c 2 -a 0 -i 6 -k AGT
n -t 85.223565918 -s 1 -S COLOR -c green -o black
r -t 85.223565918 -s 1 -d -1 -p MAC -e 38 -c 2 -a 0 -i 0 -k MAC
+ -t 87.723999836 -s 2 -d -1 -p cbr -e 512 -c 2 -a 0 -i 7 -k AGT 
- -t 87.723999836 -s 2 -d -1 -p cbr -e 512 -c 2 -a 0 -i 7 -k AGT
n -t 87.723999836 -s 2 -S COLOR -c green -o black
h -t 87.723999836 -s 2 -d -1 -p cbr -e 512 -c 2 -a 0 -i 7 -k AGT
+ -t 87.724074836 -s 2 -d -1 -p MAC -e 44 -c 2 -a 0 -i 0 -k MAC 
- -t 87.724074836 -s 2 -d -1 -p MAC -e 44 -c 2 -a 0 -i 0 -k MAC
n -t 87.724074836 -s 2 -S COLOR -c green -o black
h -t 87.724074836 -s 2 -d -1 -p MAC -e 44 -c 2 -a 0 -i 0 -k MAC
n -t 87.724251580 -s 1 -S COLOR -c green -o black
r -t 87.724251580 -s 1 -d -1 -p MAC -e 44 -c 2 -a 0 -i 0 -k MAC
+ -t 87.724261580 -s 1 -d -1 -p MAC -e 38 -c 2 -a 0 -i 0 -k MAC 
- -t 87.724261580 -s 1 -d -1 -p MAC -e 38 -c 2 -a 0 -i 0 -k MAC
n -t 87.724261580 -s 1 -S COLOR -c green -o black
h -t 87.724261580 -s 1 -d -1 -p MAC -e 38 -c 2 -a 0 -i 0 -k MAC
n -t 87.724414324 -s 2 -S COLOR -c green -o black
r -t 87.724414324 -s 2 -d -1 -p MAC -e 38 -c 2 -a 0 -i 0 -k MAC
+ -t 87.724464324 -s 2 -d 1 -p cbr -e 596 -c 2 -a 0 -i 7 -k MAC 
- -t 87.724464324 -s 2 -d 1 -p cbr -e 596 -c 2 -a 0 -i 7 -k MAC
n -t 87.724464324 -s 2 -S COLOR -c green -o black
h -t 87.724464324 -s 2 -d 1 -p cbr -e 596 -c 2 -a 0 -i 7 -k MAC
n -t 87.726849069 -s 1 -S COLOR -c green -o black
r -t 87.726849069 -s 1 -d 1 -p cbr -e 544 -c 2 -a 0 -i 7 -k MAC
+ -t 87.726859069 -s 1 -d -1 -p MAC -e 38 -c 2 -a 0 -i 0 -k MAC 
- -t 87.726859069 -s 1 -d -1 -p MAC -e 38 -c 2 -a 0 -i 0 -k MAC
n -t 87.726859069 -s 1 -S COLOR -c green -o black
h -t 87.726859069 -s 1 -d -1 -p MAC -e 38 -c 2 -a 0 -i 0 -k MAC
n -t 87.727011813 -s 2 -S COLOR -c green -o black
r -t 87.727011813 -s 2 -d -1 -p MAC -e 38 -c 2 -a 0 -i 0 -k MAC
+ -t 87.727381069 -s 1 -d -1 -p MAC -e 44 -c 2 -a 0 -i 0 -k MAC 
- -t 87.727381069 -s 1 -d -1 -p MAC -e 44 -c 2 -a 0 -i 0 -k MAC
n -t 87.727381069 -s 1 -S COLOR -c green -o black
h -t 87.727381069 -s 1 -d -1 -p MAC -e 44 -c 2 -a 0 -i 0 -k MAC
n -t 87.727557698 -s 3 -S COLOR -c green -o black
r -t 87.727557698 -s 3 -d -1 -p MAC -e 44 -c 2 -a 0 -i 0 -k MAC
+ -t 87.727567698 -s 3 -d -1 -p MAC -e 38 -c 2 -a 0 -i 0 -k MAC 
- -t 87.727567698 -s 3 -d -1 -p MAC -e 38 -c 2 -a 0 -i 0 -k MAC
n -t 87.727567698 -s 3 -S COLOR -c green -o black
h -t 87.727567698 -s 3 -d -1 -p MAC -e 38 -c 2 -a 0 -i 0 -k MAC
n -t 87.727720327 -s 1 -S COLOR -c green -o black
r -t 87.727720327 -s 1 -d -1 -p MAC -e 38 -c 2 -a 0 -i 0 -k MAC
+ -t 87.727770327 -s 1 -d 3 -p cbr -e 596 -c 2 -a 0 -i 7 -k MAC 
- -t 87.727770327 -s 1 -d 3 -p cbr -e 596 -c 2 -a 0 -i 7 -k MAC
n -t 87.727770327 -s 1 -S COLOR -c green -o black
h -t 87.727770327 -s 1 -d 3 -p cbr -e 596 -c 2 -a 0 -i 7 -k MAC
n -t 87.730154956 -s 3 -S COLOR -c green -o black
r -t 87.730154956 -s 3 -d 3 -p cbr -e 544 -c 2 -a 0 -i 7 -k MAC
+ -t 87.730164956 -s 3 -d -1 -p MAC -e 38 -c 2 -a 0 -i 0 -k MAC 
- -t 87.730164956 -s 3 -d -1 -p MAC -e 38 -c 2 -a 0 -i 0 -k MAC
n -t 87.730164956 -s 3 -S COLOR -c green -o black
h -t 87.730164956 -s 3 -d -1 -p MAC -e 38 -c 2 -a 0 -i 0 -k MAC
n -t 87.730179956 -s 3 -S COLOR -c green -o black
r -t 87.730179956 -s 3 -d 3 -p cbr -e 544 -c 2 -a 0 -i 7 -k AGT
n -t 87.730317585 -s 1 -S COLOR -c green -o black
r -t 87.730317585 -s 1 -d -1 -p MAC -e 38 -c 2 -a 0 -i 0 -k MAC
+ -t 89.480302783 -s 2 -d -1 -p cbr -e 512 -c 2 -a 0 -i 8 -k AGT 
- -t 89.480302783 -s 2 -d -1 -p cbr -e 512 -c 2 -a 0 -i 8 -k AGT
n -t 89.480302783 -s 2 -S COLOR -c green -o black
h -t 89.480302783 -s 2 -d -1 -p cbr -e 512 -c 2 -a 0 -i 8 -k AGT
+ -t 89.480377783 -s 2 -d -1 -p MAC -e 44 -c 2 -a 0 -i 0 -k MAC 
- -t 89.480377783 -s 2 -d -1 -p MAC -e 44 -c 2 -a 0 -i 0 -k MAC
n -t 89.480377783 -s 2 -S COLOR -c green -o black
h -t 89.480377783 -s 2 -d -1 -p MAC -e 44 -c 2 -a 0 -i 0 -k MAC
n -t 89.480554528 -s 1 -S COLOR -c green -o black
r -t 89.480554528 -s 1 -d -1 -p MAC -e 44 -c 2 -a 0 -i 0 -k MAC
+ -t 89.480564528 -s 1 -d -1 -p MAC -e 38 -c 2 -a 0 -i 0 -k MAC 
- -t 89.480564528 -s 1 -d -1 -p MAC -e 38 -c 2 -a 0 -i 0 -k MAC
n -t 89.480564528 -s 1 -S COLOR -c green -o black
h -t 89.480564528 -s 1 -d -1 -p MAC -e 38 -c 2 -a 0 -i 0 -k MAC
n -t 89.480717272 -s 2 -S COLOR -c green -o black
r -t 89.480717272 -s 2 -d -1 -p MAC -e 38 -c 2 -a 0 -i 0 -k MAC
+ -t 89.480767272 -s 2 -d 1 -p cbr -e 596 -c 2 -a 0 -i 8 -k MAC 
- -t 89.480767272 -s 2 -d 1 -p cbr -e 596 -c 2 -a 0 -i 8 -k MAC
n -t 89.480767272 -s 2 -S COLOR -c green -o black
h -t 89.480767272 -s 2 -d 1 -p cbr -e 596 -c 2 -a 0 -i 8 -k MAC
n -t 89.483152016 -s 1 -S COLOR -c green -o black
r -t 89.483152016 -s 1 -d 1 -p cbr -e 544 -c 2 -a 0 -i 8 -k MAC
+ -t 89.483162016 -s 1 -d -1 -p MAC -e 38 -c 2 -a 0 -i 0 -k MAC 
- -t 89.483162016 -s 1 -d -1 -p MAC -e 38 -c 2 -a 0 -i 0 -k MAC
n -t 89.483162016 -s 1 -S COLOR -c green -o black
h -t 89.483162016 -s 1 -d -1 -p MAC -e 38 -c 2 -a 0 -i 0 -k MAC
n -t 89.483314761 -s 2 -S COLOR -c green -o black
r -t 89.483314761 -s 2 -d -1 -p MAC -e 38 -c 2 -a 0 -i 0 -k MAC
+ -t 89.483464016 -s 1 -d -1 -p MAC -e 44 -c 2 -a 0 -i 0 -k MAC 
- -t 89.483464016 -s 1 -d -1 -p MAC -e 44 -c 2 -a 0 -i 0 -k MAC
n -t 89.483464016 -s 1 -S COLOR -c green -o black
h -t 89.483464016 -s 1 -d -1 -p MAC -e 44 -c 2 -a 0 -i 0 -k MAC
n -t 89.483640645 -s 3 -S COLOR -c green -o black
r -t 89.483640645 -s 3 -d -1 -p MAC -e 44 -c 2 -a 0 -i 0 -k MAC
+ -t 89.483650645 -s 3 -d -1 -p MAC -e 38 -c 2 -a 0 -i 0 -k MAC 
- -t 89.483650645 -s 3 -d -1 -p MAC -e 38 -c 2 -a 0 -i 0 -k MAC
n -t 89.483650645 -s 3 -S COLOR -c green -o black
h -t 89.483650645 -s 3 -d -1 -p MAC -e 38 -c 2 -a 0 -i 0 -k MAC
n -t 89.483803274 -s 1 -S COLOR -c green -o black
r -t 89.483803274 -s 1 -d -1 -p MAC -e 38 -c 2 -a 0 -i 0 -k MAC
+ -t 89.483853274 -s 1 -d 3 -p cbr -e 596 -c 2 -a 0 -i 8 -k MAC 
- -t 89.483853274 -s 1 -d 3 -p cbr -e 596 -c 2 -a 0 -i 8 -k MAC
n -t 89.483853274 -s 1 -S COLOR -c green -o black
h -t 89.483853274 -s 1 -d 3 -p cbr -e 596 -c 2 -a 0 -i 8 -k MAC
n -t 89.486237904 -s 3 -S COLOR -c green -o black
r -t 89.486237904 -s 3 -d 3 -p cbr -e 544 -c 2 -a 0 -i 8 -k MAC
+ -t 89.486247904 -s 3 -d -1 -p MAC -e 38 -c 2 -a 0 -i 0 -k MAC 
- -t 89.486247904 -s 3 -d -1 -p MAC -e 38 -c 2 -a 0 -i 0 -k MAC
n -t 89.486247904 -s 3 -S COLOR -c green -o black
h -t 89.486247904 -s 3 -d -1 -p MAC -e 38 -c 2 -a 0 -i 0 -k MAC
n -t 89.486262904 -s 3 -S COLOR -c green -o black
r -t 89.486262904 -s 3 -d 3 -p cbr -e 544 -c 2 -a 0 -i 8 -k AGT
n -t 89.486400533 -s 1 -S COLOR -c green -o black
r -t 89.486400533 -s 1 -d -1 -p MAC -e 38 -c 2 -a 0 -i 0 -k MAC
+ -t 91.357033492 -s 2 -d -1 -p cbr -e 512 -c 2 -a 0 -i 9 -k AGT 
- -t 91.357033492 -s 2 -d -1 -p cbr -e 512 -c 2 -a 0 -i 9 -k AGT
n -t 91.357033492 -s 2 -S COLOR -c green -o black
h -t 91.357033492 -s 2 -d -1 -p cbr -e 512 -c 2 -a 0 -i 9 -k AGT
+ -t 91.357108492 -s 2 -d -1 -p MAC -e 44 -c 2 -a 0 -i 0 -k MAC 
- -t 91.357108492 -s 2 -d -1 -p MAC -e 44 -c 2 -a 0 -i 0 -k MAC
n -t 91.357108492 -s 2 -S COLOR -c green -o black
h -t 91.357108492 -s 2 -d -1 -p MAC -e 44 -c 2 -a 0 -i 0 -k MAC
n -t 91.357285236 -s 1 -S COLOR -c green -o black
r -t 91.357285236 -s 1 -d -1 -p MAC -e 44 -c 2 -a 0 -i 0 -k MAC
+ -t 91.357295236 -s 1 -d -1 -p MAC -e 38 -c 2 -a 0 -i 0 -k MAC 
- -t 91.357295236 -s 1 -d -1 -p MAC -e 38 -c 2 -a 0 -i 0 -k MAC
n -t 91.357295236 -s 1 -S COLOR -c green -o black
h -t 91.357295236 -s 1 -d -1 -p MAC -e 38 -c 2 -a 0 -i 0 -k MAC
n -t 91.357447981 -s 2 -S COLOR -c green -o black
r -t 91.357447981 -s 2 -d -1 -p MAC -e 38 -c 2 -a 0 -i 0 -k MAC
+ -t 91.357497981 -s 2 -d 1 -p cbr -e 596 -c 2 -a 0 -i 9 -k MAC 
- -t 91.357497981 -s 2 -d 1 -p cbr -e 596 -c 2 -a 0 -i 9 -k MAC
n -t 91.357497981 -s 2 -S COLOR -c green -o black
h -t 91.357497981 -s 2 -d 1 -p cbr -e 596 -c 2 -a 0 -i 9 -k MAC
n -t 91.359882725 -s 1 -S COLOR -c green -o black
r -t 91.359882725 -s 1 -d 1 -p cbr -e 544 -c 2 -a 0 -i 9 -k MAC
+ -t 91.359892725 -s 1 -d -1 -p MAC -e 38 -c 2 -a 0 -i 0 -k MAC 
- -t 91.359892725 -s 1 -d -1 -p MAC -e 38 -c 2 -a 0 -i 0 -k MAC
n -t 91.359892725 -s 1 -S COLOR -c green -o black
h -t 91.359892725 -s 1 -d -1 -p MAC -e 38 -c 2 -a 0 -i 0 -k MAC
n -t 91.360045469 -s 2 -S COLOR -c green -o black
r -t 91.360045469 -s 2 -d -1 -p MAC -e 38 -c 2 -a 0 -i 0 -k MAC
+ -t 91.360194725 -s 1 -d -1 -p MAC -e 44 -c 2 -a 0 -i 0 -k MAC 
- -t 91.360194725 -s 1 -d -1 -p MAC -e 44 -c 2 -a 0 -i 0 -k MAC
n -t 91.360194725 -s 1 -S COLOR -c green -o black
h -t 91.360194725 -s 1 -d -1 -p MAC -e 44 -c 2 -a 0 -i 0 -k MAC
n -t 91.360371354 -s 3 -S COLOR -c green -o black
r -t 91.360371354 -s 3 -d -1 -p MAC -e 44 -c 2 -a 0 -i 0 -k MAC
+ -t 91.360381354 -s 3 -d -1 -p MAC -e 38 -c 2 -a 0 -i 0 -k MAC 
- -t 91.360381354 -s 3 -d -1 -p MAC -e 38 -c 2 -a 0 -i 0 -k MAC
n -t 91.360381354 -s 3 -S COLOR -c green -o black
h -t 91.360381354 -s 3 -d -1 -p MAC -e 38 -c 2 -a 0 -i 0 -k MAC
n -t 91.360533983 -s 1 -S COLOR -c green -o black
r -t 91.360533983 -s 1 -d -1 -p MAC -e 38 -c 2 -a 0 -i 0 -k MAC
+ -t 91.360583983 -s 1 -d 3 -p cbr -e 596 -c 2 -a 0 -i 9 -k MAC 
- -t 91.360583983 -s 1 -d 3 -p cbr -e 596 -c 2 -a 0 -i 9 -k MAC
n -t 91.360583983 -s 1 -S COLOR -c green -o black
h -t 91.360583983 -s 1 -d 3 -p cbr -e 596 -c 2 -a 0 -i 9 -k MAC
n -t 91.362968612 -s 3 -S COLOR -c green -o black
r -t 91.362968612 -s 3 -d 3 -p cbr -e 544 -c 2 -a 0 -i 9 -k MAC
+ -t 91.362978612 -s 3 -d -1 -p MAC -e 38 -c 2 -a 0 -i 0 -k MAC 
- -t 91.362978612 -s 3 -d -1 -p MAC -e 38 -c 2 -a 0 -i 0 -k MAC
n -t 91.362978612 -s 3 -S COLOR -c green -o black
h -t 91.362978612 -s 3 -d -1 -p MAC -e 38 -c 2 -a 0 -i 0 -k MAC
n -t 91.362993612 -s 3 -S COLOR -c green -o black
r -t 91.362993612 -s 3 -d 3 -p cbr -e 544 -c 2 -a 0 -i 9 -k AGT
n -t 91.363131241 -s 1 -S COLOR -c green -o black
r -t 91.363131241 -s 1 -d -1 -p MAC -e 38 -c 2 -a 0 -i 0 -k MAC
+ -t 92.573271777 -s 2 -d -1 -p cbr -e 512 -c 2 -a 0 -i 10 -k AGT 
- -t 92.573271777 -s 2 -d -1 -p cbr -e 512 -c 2 -a 0 -i 10 -k AGT
n -t 92.573271777 -s 2 -S COLOR -c green -o black
h -t 92.573271777 -s 2 -d -1 -p cbr -e 512 -c 2 -a 0 -i 10 -k AGT
+ -t 92.573346777 -s 2 -d -1 -p MAC -e 44 -c 2 -a 0 -i 0 -k MAC 