v -t 0 set_rate -21.13509275 1
l -t 0 -s 2 -d 0 -S DLABEL -l "1.5Mb, 50ms" -L ""
l -t 0 -s 2 -d 1 -S DLABEL -l "56Kb, 50ms" -L ""
l -t 0 -s 3 -d 2 -S DLABEL -l "56Kb, 100ms" -L ""
V -t * -v 1.0a5 -a 0
A -t * -n 1 -p 0 -o 0xffffffff -c 31 -a 1
A -t * -h 1 -m 2147483647 -s 0
c -t * -i 103 -n green
c -t * -i 100 -n red
c -t * -i 101 -n orange
c -t * -i 102 -n yellow
n -t * -a 4 -s 4 -S UP -v circle -c background -i background
n -t * -a 0 -s 0 -S UP -v circle -c black -i black
n -t * -a 1 -s 1 -S UP -v circle -c black -i black
n -t * -a 2 -s 2 -S UP -v circle -c black -i black
n -t * -a 3 -s 3 -S UP -v circle -c black -i black
l -t * -s 0 -d 2 -S UP -r 1500000 -D 0.050000000000000003 -c black -o left
l -t * -s 1 -d 2 -S UP -r 56000 -D 0.050000000000000003 -c black -o down
l -t * -s 2 -d 3 -S UP -r 56000 -D 0.10000000000000001 -c black -o left
l -t * -s 2 -d 4 -S UP -r 56000 -D 0.0010 -c background -o down
q -t * -s 4 -d 2 -a 0.5
q -t * -s 2 -d 4 -a 0.5
q -t * -s 2 -d 0 -a 0.5
q -t * -s 0 -d 2 -a 0.5
q -t * -s 2 -d 1 -a 0.5
q -t * -s 1 -d 2 -a 0.5
q -t * -s 3 -d 2 -a 0.5
q -t * -s 2 -d 3 -a 0.5
n -t 10 -s 1 -S COLOR -c SteelBlue -o black -i SteelBlue -I black
n -t 10 -s 1 -S DLABEL -l "client 1" -L ""
n -t 10 -s 2 -S COLOR -c yellow -o black -i yellow -I black
n -t 10 -s 2 -S DLABEL -l "cache 0" -L ""
n -t 10 -s 0 -S COLOR -c SteelBlue -o black -i SteelBlue -I black
n -t 10 -s 0 -S DLABEL -l "client 0" -L ""
n -t 10 -s 3 -S COLOR -c HotPink -o black -i HotPink -I black
n -t 10 -s 3 -S DLABEL -l "server 0" -L ""
n -t 10 -s 4 -S COLOR -c background -o background -i background -I background
+ -t 20 -s 0 -d 2 -p tcp -e 40 -c 0 -i 0 -a 0 -x {0.0 2.0 0 ------- null}
- -t 20 -s 0 -d 2 -p tcp -e 40 -c 0 -i 0 -a 0 -x {0.0 2.0 0 ------- null}
h -t 20 -s 0 -d 2 -p tcp -e 40 -c 0 -i 0 -a 0 -x {0.0 2.0 -1 ------- null}
m -t 20 -s 0 -n _o139:0:20 -c purple -h circle
v -t 20 sim_annotation 20 1 request from client 0
r -t 20.0502133333333 -s 0 -d 2 -p tcp -e 40 -c 0 -i 0 -a 0 -x {0.0 2.0 0 ------- null}
+ -t 20.0502133333333 -s 2 -d 0 -p ack -e 40 -c 0 -i 1 -a 0 -x {2.0 0.0 0 ------- null}
- -t 20.0502133333333 -s 2 -d 0 -p ack -e 40 -c 0 -i 1 -a 0 -x {2.0 0.0 0 ------- null}
h -t 20.0502133333333 -s 2 -d 0 -p ack -e 40 -c 0 -i 1 -a 0 -x {2.0 0.0 -1 ------- null}
r -t 20.1004266666667 -s 2 -d 0 -p ack -e 40 -c 0 -i 1 -a 0 -x {2.0 0.0 0 ------- null}
+ -t 20.1004266666667 -s 0 -d 2 -p tcp -e 40 -c 0 -i 2 -a 0 -x {0.0 2.0 1 ------- null}
- -t 20.1004266666667 -s 0 -d 2 -p tcp -e 40 -c 0 -i 2 -a 0 -x {0.0 2.0 1 ------- null}
h -t 20.1004266666667 -s 0 -d 2 -p tcp -e 40 -c 0 -i 2 -a 0 -x {0.0 2.0 -1 ------- null}
+ -t 20.1004266666667 -s 0 -d 2 -p tcp -e 83 -c 0 -i 3 -a 0 -x {0.0 2.0 1 ------- null}
- -t 20.10064 -s 0 -d 2 -p tcp -e 83 -c 0 -i 3 -a 0 -x {0.0 2.0 1 ------- null}
h -t 20.10064 -s 0 -d 2 -p tcp -e 83 -c 0 -i 3 -a 0 -x {0.0 2.0 -1 ------- null}
r -t 20.15064 -s 0 -d 2 -p tcp -e 40 -c 0 -i 2 -a 0 -x {0.0 2.0 1 ------- null}
r -t 20.1510826666667 -s 0 -d 2 -p tcp -e 83 -c 0 -i 3 -a 0 -x {0.0 2.0 1 ------- null}
+ -t 20.1510826666667 -s 2 -d 3 -p tcp -e 40 -c 2 -i 4 -a 2 -x {2.2 3.0 0 ------- null}
- -t 20.1510826666667 -s 2 -d 3 -p tcp -e 40 -c 2 -i 4 -a 2 -x {2.2 3.0 0 ------- null}
h -t 20.1510826666667 -s 2 -d 3 -p tcp -e 40 -c 2 -i 4 -a 2 -x {2.2 3.0 -1 ------- null}
+ -t 20.2 -s 2 -d 0 -p ack -e 40 -c 0 -i 5 -a 0 -x {2.0 0.0 1 ------- null}
- -t 20.2 -s 2 -d 0 -p ack -e 40 -c 0 -i 5 -a 0 -x {2.0 0.0 1 ------- null}
h -t 20.2 -s 2 -d 0 -p ack -e 40 -c 0 -i 5 -a 0 -x {2.0 0.0 -1 ------- null}
r -t 20.2502133333333 -s 2 -d 0 -p ack -e 40 -c 0 -i 5 -a 0 -x {2.0 0.0 1 ------- null}
r -t 20.2567969523809 -s 2 -d 3 -p tcp -e 40 -c 2 -i 4 -a 2 -x {2.2 3.0 0 ------- null}
+ -t 20.2567969523809 -s 3 -d 2 -p ack -e 40 -c 2 -i 6 -a 2 -x {3.0 2.2 0 ------- null}
- -t 20.2567969523809 -s 3 -d 2 -p ack -e 40 -c 2 -i 6 -a 2 -x {3.0 2.2 0 ------- null}
h -t 20.2567969523809 -s 3 -d 2 -p ack -e 40 -c 2 -i 6 -a 2 -x {3.0 2.2 -1 ------- null}
r -t 20.3625112380952 -s 3 -d 2 -p ack -e 40 -c 2 -i 6 -a 2 -x {3.0 2.2 0 ------- null}
+ -t 20.3625112380952 -s 2 -d 3 -p tcp -e 40 -c 2 -i 7 -a 2 -x {2.2 3.0 1 ------- null}
- -t 20.3625112380952 -s 2 -d 3 -p tcp -e 40 -c 2 -i 7 -a 2 -x {2.2 3.0 1 ------- null}
h -t 20.3625112380952 -s 2 -d 3 -p tcp -e 40 -c 2 -i 7 -a 2 -x {2.2 3.0 -1 ------- null}
+ -t 20.3625112380952 -s 2 -d 3 -p tcp -e 83 -c 2 -i 8 -a 2 -x {2.2 3.0 1 ------- null}
- -t 20.3682255238095 -s 2 -d 3 -p tcp -e 83 -c 2 -i 8 -a 2 -x {2.2 3.0 1 ------- null}
h -t 20.3682255238095 -s 2 -d 3 -p tcp -e 83 -c 2 -i 8 -a 2 -x {2.2 3.0 -1 ------- null}
r -t 20.4682255238095 -s 2 -d 3 -p tcp -e 40 -c 2 -i 7 -a 2 -x {2.2 3.0 1 ------- null}
r -t 20.4800826666667 -s 2 -d 3 -p tcp -e 83 -c 2 -i 8 -a 2 -x {2.2 3.0 1 ------- null}
+ -t 20.4800826666667 -s 3 -d 2 -p ack -e 83 -c 2 -i 9 -a 2 -x {3.0 2.2 1 ------- null}
- -t 20.4800826666667 -s 3 -d 2 -p ack -e 83 -c 2 -i 9 -a 2 -x {3.0 2.2 1 ------- null}
h -t 20.4800826666667 -s 3 -d 2 -p ack -e 83 -c 2 -i 9 -a 2 -x {3.0 2.2 -1 ------- null}
r -t 20.5919398095238 -s 3 -d 2 -p ack -e 83 -c 2 -i 9 -a 2 -x {3.0 2.2 1 ------- null}
+ -t 20.5919398095238 -s 2 -d 0 -p ack -e 83 -c 0 -i 10 -a 0 -x {2.0 0.0 1 ------- null}
- -t 20.5919398095238 -s 2 -d 0 -p ack -e 83 -c 0 -i 10 -a 0 -x {2.0 0.0 1 ------- null}
h -t 20.5919398095238 -s 2 -d 0 -p ack -e 83 -c 0 -i 10 -a 0 -x {2.0 0.0 -1 ------- null}
n -t 20.591939809523808 -s 2 -S COLOR -c blue -o yellow -i blue -I yellow
+ -t 20.5919398095238 -s 3 -d 2 -p rap_data -e 1024 -c 100 -i 11 -a 100 -x {3.1 2.3 1 ------- null}
- -t 20.5919398095238 -s 3 -d 2 -p rap_data -e 1024 -c 100 -i 11 -a 100 -x {3.1 2.3 1 ------- null}
h -t 20.5919398095238 -s 3 -d 2 -p rap_data -e 1024 -c 100 -i 11 -a 100 -x {3.1 2.3 -1 ------- null}
+ -t 20.6 -s 2 -d 3 -p tcp -e 40 -c 2 -i 12 -a 2 -x {2.2 3.0 44 ------- null}
- -t 20.6 -s 2 -d 3 -p tcp -e 40 -c 2 -i 12 -a 2 -x {2.2 3.0 44 ------- null}
h -t 20.6 -s 2 -d 3 -p tcp -e 40 -c 2 -i 12 -a 2 -x {2.2 3.0 -1 ------- null}
r -t 20.6423824761905 -s 2 -d 0 -p ack -e 83 -c 0 -i 10 -a 0 -x {2.0 0.0 1 ------- null}
m -t 20.642382476190473 -s 0 -n _o139:0:20 -c purple -h circle -X
+ -t 20.7 -s 0 -d 2 -p tcp -e 40 -c 0 -i 13 -a 0 -x {0.0 2.0 44 ------- null}
- -t 20.7 -s 0 -d 2 -p tcp -e 40 -c 0 -i 13 -a 0 -x {0.0 2.0 44 ------- null}
h -t 20.7 -s 0 -d 2 -p tcp -e 40 -c 0 -i 13 -a 0 -x {0.0 2.0 -1 ------- null}
r -t 20.7057142857143 -s 2 -d 3 -p tcp -e 40 -c 2 -i 12 -a 2 -x {2.2 3.0 44 ------- null}
r -t 20.7502133333333 -s 0 -d 2 -p tcp -e 40 -c 0 -i 13 -a 0 -x {0.0 2.0 44 ------- null}
r -t 20.8382255238095 -s 3 -d 2 -p rap_data -e 1024 -c 100 -i 11 -a 100 -x {3.1 2.3 1 ------- null}
+ -t 20.8382255238095 -s 2 -d 3 -p rap_ack -e 44 -c 0 -i 14 -a 0 -x {2.3 3.1 1 ------- null}
- -t 20.8382255238095 -s 2 -d 3 -p rap_ack -e 44 -c 0 -i 14 -a 0 -x {2.3 3.1 1 ------- null}
h -t 20.8382255238095 -s 2 -d 3 -p rap_ack -e 44 -c 0 -i 14 -a 0 -x {2.3 3.1 -1 ------- null}
+ -t 20.8382 -s 2 -d 4 -p dummy -e 1024 -c 100 -i 0 -a 100
r -t 20.9445112380952 -s 2 -d 3 -p rap_ack -e 44 -c 0 -i 14 -a 0 -x {2.3 3.1 1 ------- null}
+ -t 21.0919398095238 -s 3 -d 2 -p rap_data -e 1024 -c 100 -i 15 -a 100 -x {3.1 2.3 2 ------- null}
- -t 21.0919398095238 -s 3 -d 2 -p rap_data -e 1024 -c 100 -i 15 -a 100 -x {3.1 2.3 2 ------- null}
h -t 21.0919398095238 -s 3 -d 2 -p rap_data -e 1024 -c 100 -i 15 -a 100 -x {3.1 2.3 -1 ------- null}
+ -t 21.1423824761905 -s 2 -d 0 -p rap_data -e 1024 -c 100 -i 16 -a 100 -x {2.4 0.1 1 ------- null}
- -t 21.1423824761905 -s 2 -d 0 -p rap_data -e 1024 -c 100 -i 16 -a 100 -x {2.4 0.1 1 ------- null}
h -t 21.1423824761905 -s 2 -d 0 -p rap_data -e 1024 -c 100 -i 16 -a 100 -x {2.4 0.1 -1 ------- null}
r -t 21.1978438095238 -s 2 -d 0 -p rap_data -e 1024 -c 100 -i 16 -a 100 -x {2.4 0.1 1 ------- null}
+ -t 21.1978438095238 -s 0 -d 2 -p rap_ack -e 44 -c 0 -i 17 -a 0 -x {0.1 2.4 1 ------- null}
- -t 21.1978438095238 -s 0 -d 2 -p rap_ack -e 44 -c 0 -i 17 -a 0 -x {0.1 2.4 1 ------- null}
h -t 21.1978438095238 -s 0 -d 2 -p rap_ack -e 44 -c 0 -i 17 -a 0 -x {0.1 2.4 -1 ------- null}
r -t 21.2480784761905 -s 0 -d 2 -p rap_ack -e 44 -c 0 -i 17 -a 0 -x {0.1 2.4 1 ------- null}
+ -t 21.2682255238095 -s 3 -d 2 -p rap_data -e 1024 -c 100 -i 18 -a 100 -x {3.1 2.3 3 ------- null}
- -t 21.2682255238095 -s 3 -d 2 -p rap_data -e 1024 -c 100 -i 18 -a 100 -x {3.1 2.3 3 ------- null}
h -t 21.2682255238095 -s 3 -d 2 -p rap_data -e 1024 -c 100 -i 18 -a 100 -x {3.1 2.3 -1 ------- null}
r -t 21.3382255238095 -s 3 -d 2 -p rap_data -e 1024 -c 100 -i 15 -a 100 -x {3.1 2.3 2 ------- null}
+ -t 21.3382255238095 -s 2 -d 3 -p rap_ack -e 44 -c 0 -i 19 -a 0 -x {2.3 3.1 2 ------- null}
- -t 21.3382255238095 -s 2 -d 3 -p rap_ack -e 44 -c 0 -i 19 -a 0 -x {2.3 3.1 2 ------- null}
h -t 21.3382255238095 -s 2 -d 3 -p rap_ack -e 44 -c 0 -i 19 -a 0 -x {2.3 3.1 -1 ------- null}
+ -t 21.3382 -s 2 -d 4 -p dummy -e 1024 -c 100 -i 0 -a 100
+ -t 21.4445112380952 -s 3 -d 2 -p rap_data -e 1024 -c 100 -i 20 -a 100 -x {3.1 2.3 4 ------- null}
- -t 21.4445112380952 -s 3 -d 2 -p rap_data -e 1024 -c 100 -i 20 -a 100 -x {3.1 2.3 4 ------- null}
h -t 21.4445112380952 -s 3 -d 2 -p rap_data -e 1024 -c 100 -i 20 -a 100 -x {3.1 2.3 -1 ------- null}
r -t 21.4445112380952 -s 2 -d 3 -p rap_ack -e 44 -c 0 -i 19 -a 0 -x {2.3 3.1 2 ------- null}
r -t 21.5145112380952 -s 3 -d 2 -p rap_data -e 1024 -c 100 -i 18 -a 100 -x {3.1 2.3 3 ------- null}
+ -t 21.5145112380952 -s 2 -d 3 -p rap_ack -e 44 -c 0 -i 21 -a 0 -x {2.3 3.1 3 ------- null}
- -t 21.5145112380952 -s 2 -d 3 -p rap_ack -e 44 -c 0 -i 21 -a 0 -x {2.3 3.1 3 ------- null}
h -t 21.5145112380952 -s 2 -d 3 -p rap_ack -e 44 -c 0 -i 21 -a 0 -x {2.3 3.1 -1 ------- null}
+ -t 21.5145 -s 2 -d 4 -p dummy -e 1024 -c 100 -i 0 -a 100
+ -t 21.562035047619 -s 3 -d 2 -p rap_data -e 1024 -c 101 -i 22 -a 101 -x {3.1 2.3 5 ------- null}
- -t 21.590796952381 -s 3 -d 2 -p rap_data -e 1024 -c 101 -i 22 -a 101 -x {3.1 2.3 5 ------- null}
h -t 21.590796952381 -s 3 -d 2 -p rap_data -e 1024 -c 101 -i 22 -a 101 -x {3.1 2.3 -1 ------- null}
r -t 21.620796952381 -s 2 -d 3 -p rap_ack -e 44 -c 0 -i 21 -a 0 -x {2.3 3.1 3 ------- null}
+ -t 21.6423824761905 -s 2 -d 0 -p rap_data -e 1024 -c 100 -i 23 -a 100 -x {2.4 0.1 2 ------- null}
- -t 21.6423824761905 -s 2 -d 0 -p rap_data -e 1024 -c 100 -i 23 -a 100 -x {2.4 0.1 2 ------- null}
h -t 21.6423824761905 -s 2 -d 0 -p rap_data -e 1024 -c 100 -i 23 -a 100 -x {2.4 0.1 -1 ------- null}
+ -t 21.6795588571429 -s 3 -d 2 -p rap_data -e 1024 -c 101 -i 24 -a 101 -x {3.1 2.3 6 ------- null}
r -t 21.690796952381 -s 3 -d 2 -p rap_data -e 1024 -c 100 -i 20 -a 100 -x {3.1 2.3 4 ------- null}
+ -t 21.690796952381 -s 2 -d 3 -p rap_ack -e 44 -c 0 -i 25 -a 0 -x {2.3 3.1 4 ------- null}
- -t 21.690796952381 -s 2 -d 3 -p rap_ack -e 44 -c 0 -i 25 -a 0 -x {2.3 3.1 4 ------- null}
h -t 21.690796952381 -s 2 -d 3 -p rap_ack -e 44 -c 0 -i 25 -a 0 -x {2.3 3.1 -1 ------- null}
+ -t 21.6908 -s 2 -d 4 -p dummy -e 1024 -c 100 -i 0 -a 100
r -t 21.6978438095238 -s 2 -d 0 -p rap_data -e 1024 -c 100 -i 23 -a 100 -x {2.4 0.1 2 ------- null}
+ -t 21.6978438095238 -s 0 -d 2 -p rap_ack -e 44 -c 0 -i 26 -a 0 -x {0.1 2.4 2 ------- null}
- -t 21.6978438095238 -s 0 -d 2 -p rap_ack -e 44 -c 0 -i 26 -a 0 -x {0.1 2.4 2 ------- null}
h -t 21.6978438095238 -s 0 -d 2 -p rap_ack -e 44 -c 0 -i 26 -a 0 -x {0.1 2.4 -1 ------- null}
- -t 21.7370826666667 -s 3 -d 2 -p rap_data -e 1024 -c 101 -i 24 -a 101 -x {3.1 2.3 6 ------- null}
h -t 21.7370826666667 -s 3 -d 2 -p rap_data -e 1024 -c 101 -i 24 -a 101 -x {3.1 2.3 -1 ------- null}
r -t 21.7480784761905 -s 0 -d 2 -p rap_ack -e 44 -c 0 -i 26 -a 0 -x {0.1 2.4 2 ------- null}
+ -t 21.7938064761905 -s 2 -d 0 -p rap_data -e 1024 -c 100 -i 27 -a 100 -x {2.4 0.1 3 ------- null}
- -t 21.7938064761905 -s 2 -d 0 -p rap_data -e 1024 -c 100 -i 27 -a 100 -x {2.4 0.1 3 ------- null}
h -t 21.7938064761905 -s 2 -d 0 -p rap_data -e 1024 -c 100 -i 27 -a 100 -x {2.4 0.1 -1 ------- null}
+ -t 21.7970826666667 -s 3 -d 2 -p rap_data -e 1024 -c 100 -i 28 -a 100 -x {3.1 2.3 7 ------- null}
r -t 21.7970826666667 -s 2 -d 3 -p rap_ack -e 44 -c 0 -i 25 -a 0 -x {2.3 3.1 4 ------- null}
r -t 21.8370826666667 -s 3 -d 2 -p rap_data -e 1024 -c 101 -i 22 -a 101 -x {3.1 2.3 5 ------- null}
+ -t 21.8370826666667 -s 2 -d 3 -p rap_ack -e 44 -c 0 -i 29 -a 0 -x {2.3 3.1 5 ------- null}
- -t 21.8370826666667 -s 2 -d 3 -p rap_ack -e 44 -c 0 -i 29 -a 0 -x {2.3 3.1 5 ------- null}
h -t 21.8370826666667 -s 2 -d 3 -p rap_ack -e 44 -c 0 -i 29 -a 0 -x {2.3 3.1 -1 ------- null}
+ -t 21.8371 -s 2 -d 4 -p dummy -e 1024 -c 101 -i 0 -a 101
r -t 21.8492678095238 -s 2 -d 0 -p rap_data -e 1024 -c 100 -i 27 -a 100 -x {2.4 0.1 3 ------- null}
+ -t 21.8492678095238 -s 0 -d 2 -p rap_ack -e 44 -c 0 -i 30 -a 0 -x {0.1 2.4 3 ------- null}
- -t 21.8492678095238 -s 0 -d 2 -p rap_ack -e 44 -c 0 -i 30 -a 0 -x {0.1 2.4 3 ------- null}
h -t 21.8492678095238 -s 0 -d 2 -p rap_ack -e 44 -c 0 -i 30 -a 0 -x {0.1 2.4 -1 ------- null}
- -t 21.8833683809524 -s 3 -d 2 -p rap_data -e 1024 -c 100 -i 28 -a 100 -x {3.1 2.3 7 ------- null}
h -t 21.8833683809524 -s 3 -d 2 -p rap_data -e 1024 -c 100 -i 28 -a 100 -x {3.1 2.3 -1 ------- null}
+ -t 21.8852255238095 -s 3 -d 2 -p rap_data -e 1024 -c 101 -i 31 -a 101 -x {3.1 2.3 8 ------- null}
r -t 21.8995024761905 -s 0 -d 2 -p rap_ack -e 44 -c 0 -i 30 -a 0 -x {0.1 2.4 3 ------- null}
r -t 21.9433683809524 -s 2 -d 3 -p rap_ack -e 44 -c 0 -i 29 -a 0 -x {2.3 3.1 5 ------- null}
+ -t 21.9733683809524 -s 3 -d 2 -p rap_data -e 1024 -c 100 -i 32 -a 100 -x {3.1 2.3 9 ------- null}
d -t 21.9733683809524 -s 3 -d 2 -p rap_data -e 1024 -c 100 -i 32 -a 100 -x {3.1 2.3 9 ------- null}
r -t 21.9833683809524 -s 3 -d 2 -p rap_data -e 1024 -c 101 -i 24 -a 101 -x {3.1 2.3 6 ------- null}
+ -t 21.9833683809524 -s 2 -d 3 -p rap_ack -e 44 -c 0 -i 33 -a 0 -x {2.3 3.1 6 ------- null}
- -t 21.9833683809524 -s 2 -d 3 -p rap_ack -e 44 -c 0 -i 33 -a 0 -x {2.3 3.1 6 ------- null}
h -t 21.9833683809524 -s 2 -d 3 -p rap_ack -e 44 -c 0 -i 33 -a 0 -x {2.3 3.1 -1 ------- null}
+ -t 21.9834 -s 2 -d 4 -p dummy -e 1024 -c 101 -i 0 -a 101
+ -t 22.0218221357294 -s 2 -d 0 -p rap_data -e 1024 -c 101 -i 34 -a 101 -x {2.4 0.1 4 ------- null}
- -t 22.0218221357294 -s 2 -d 0 -p rap_data -e 1024 -c 101 -i 34 -a 101 -x {2.4 0.1 4 ------- null}
h -t 22.0218221357294 -s 2 -d 0 -p rap_data -e 1024 -c 101 -i 34 -a 101 -x {2.4 0.1 -1 ------- null}
- -t 22.0296540952381 -s 3 -d 2 -p rap_data -e 1024 -c 101 -i 31 -a 101 -x {3.1 2.3 8 ------- null}
h -t 22.0296540952381 -s 3 -d 2 -p rap_data -e 1024 -c 101 -i 31 -a 101 -x {3.1 2.3 -1 ------- null}
+ -t 22.0615112380952 -s 3 -d 2 -p rap_data -e 1024 -c 101 -i 35 -a 101 -x {3.1 2.3 10 ------- null}
r -t 22.0772834690627 -s 2 -d 0 -p rap_data -e 1024 -c 101 -i 34 -a 101 -x {2.4 0.1 4 ------- null}
+ -t 22.0772834690627 -s 0 -d 2 -p rap_ack -e 44 -c 0 -i 36 -a 0 -x {0.1 2.4 4 ------- null}
- -t 22.0772834690627 -s 0 -d 2 -p rap_ack -e 44 -c 0 -i 36 -a 0 -x {0.1 2.4 4 ------- null}
h -t 22.0772834690627 -s 0 -d 2 -p rap_ack -e 44 -c 0 -i 36 -a 0 -x {0.1 2.4 -1 ------- null}
r -t 22.0896540952381 -s 2 -d 3 -p rap_ack -e 44 -c 0 -i 33 -a 0 -x {2.3 3.1 6 ------- null}
+ -t 22.0984137952683 -s 2 -d 0 -p rap_data -e 1024 -c 101 -i 37 -a 101 -x {2.4 0.1 5 ------- null}
- -t 22.0984137952683 -s 2 -d 0 -p rap_data -e 1024 -c 101 -i 37 -a 101 -x {2.4 0.1 5 ------- null}
h -t 22.0984137952683 -s 2 -d 0 -p rap_data -e 1024 -c 101 -i 37 -a 101 -x {2.4 0.1 -1 ------- null}
r -t 22.1275181357294 -s 0 -d 2 -p rap_ack -e 44 -c 0 -i 36 -a 0 -x {0.1 2.4 4 ------- null}
r -t 22.1296540952381 -s 3 -d 2 -p rap_data -e 1024 -c 100 -i 28 -a 100 -x {3.1 2.3 7 ------- null}
+ -t 22.1296540952381 -s 2 -d 3 -p rap_ack -e 44 -c 0 -i 38 -a 0 -x {2.3 3.1 7 ------- null}
- -t 22.1296540952381 -s 2 -d 3 -p rap_ack -e 44 -c 0 -i 38 -a 0 -x {2.3 3.1 7 ------- null}
h -t 22.1296540952381 -s 2 -d 3 -p rap_ack -e 44 -c 0 -i 38 -a 0 -x {2.3 3.1 -1 ------- null}
+ -t 22.1297 -s 2 -d 4 -p dummy -e 1024 -c 100 -i 0 -a 100
+ -t 22.1496540952381 -s 3 -d 2 -p rap_data -e 1024 -c 101 -i 39 -a 101 -x {3.1 2.3 11 ------- null}
d -t 22.1496540952381 -s 3 -d 2 -p rap_data -e 1024 -c 101 -i 39 -a 101 -x {3.1 2.3 11 ------- null}
r -t 22.1538751286016 -s 2 -d 0 -p rap_data -e 1024 -c 101 -i 37 -a 101 -x {2.4 0.1 5 ------- null}
+ -t 22.1538751286016 -s 0 -d 2 -p rap_ack -e 44 -c 0 -i 40 -a 0 -x {0.1 2.4 5 ------- null}
- -t 22.1538751286016 -s 0 -d 2 -p rap_ack -e 44 -c 0 -i 40 -a 0 -x {0.1 2.4 5 ------- null}
h -t 22.1538751286016 -s 0 -d 2 -p rap_ack -e 44 -c 0 -i 40 -a 0 -x {0.1 2.4 -1 ------- null}
- -t 22.1759398095238 -s 3 -d 2 -p rap_data -e 1024 -c 101 -i 35 -a 101 -x {3.1 2.3 10 ------- null}
h -t 22.1759398095238 -s 3 -d 2 -p rap_data -e 1024 -c 101 -i 35 -a 101 -x {3.1 2.3 -1 ------- null}
r -t 22.2041097952683 -s 0 -d 2 -p rap_ack -e 44 -c 0 -i 40 -a 0 -x {0.1 2.4 5 ------- null}
r -t 22.2359398095238 -s 2 -d 3 -p rap_ack -e 44 -c 0 -i 38 -a 0 -x {2.3 3.1 7 ------- null}
+ -t 22.2377969523809 -s 3 -d 2 -p rap_data -e 1024 -c 100 -i 41 -a 100 -x {3.1 2.3 12 ------- null}
r -t 22.2759398095238 -s 3 -d 2 -p rap_data -e 1024 -c 101 -i 31 -a 101 -x {3.1 2.3 8 ------- null}
+ -t 22.2759398095238 -s 2 -d 3 -p rap_ack -e 44 -c 0 -i 42 -a 0 -x {2.3 3.1 8 ------- null}
- -t 22.2759398095238 -s 2 -d 3 -p rap_ack -e 44 -c 0 -i 42 -a 0 -x {2.3 3.1 8 ------- null}
h -t 22.2759398095238 -s 2 -d 3 -p rap_ack -e 44 -c 0 -i 42 -a 0 -x {2.3 3.1 -1 ------- null}
+ -t 22.2759 -s 2 -d 4 -p dummy -e 1024 -c 101 -i 0 -a 101
+ -t 22.3096408656106 -s 3 -d 2 -p rap_data -e 1024 -c 102 -i 43 -a 102 -x {3.1 2.3 13 ------- null}
d -t 22.3096408656106 -s 3 -d 2 -p rap_data -e 1024 -c 102 -i 43 -a 102 -x {3.1 2.3 13 ------- null}
- -t 22.3222255238095 -s 3 -d 2 -p rap_data -e 1024 -c 100 -i 41 -a 100 -x {3.1 2.3 12 ------- null}
h -t 22.3222255238095 -s 3 -d 2 -p rap_data -e 1024 -c 100 -i 41 -a 100 -x {3.1 2.3 -1 ------- null}
+ -t 22.3814847788402 -s 3 -d 2 -p rap_data -e 1024 -c 102 -i 44 -a 102 -x {3.1 2.3 14 ------- null}
r -t 22.3822255238095 -s 2 -d 3 -p rap_ack -e 44 -c 0 -i 42 -a 0 -x {2.3 3.1 8 ------- null}
r -t 22.4222255238095 -s 3 -d 2 -p rap_data -e 1024 -c 101 -i 35 -a 101 -x {3.1 2.3 10 ------- null}
+ -t 22.4222255238095 -s 2 -d 3 -p rap_ack -e 44 -c 0 -i 45 -a 0 -x {2.3 3.1 10 ------- null}
- -t 22.4222255238095 -s 2 -d 3 -p rap_ack -e 44 -c 0 -i 45 -a 0 -x {2.3 3.1 10 ------- null}
h -t 22.4222255238095 -s 2 -d 3 -p rap_ack -e 44 -c 0 -i 45 -a 0 -x {2.3 3.1 -1 ------- null}
+ -t 22.4222 -s 2 -d 4 -p dummy -e 1024 -c 101 -i 0 -a 101
+ -t 22.4533286920698 -s 3 -d 2 -p rap_data -e 1024 -c 102 -i 46 -a 102 -x {3.1 2.3 15 ------- null}
d -t 22.4533286920698 -s 3 -d 2 -p rap_data -e 1024 -c 102 -i 46 -a 102 -x {3.1 2.3 15 ------- null}
- -t 22.4685112380952 -s 3 -d 2 -p rap_data -e 1024 -c 102 -i 44 -a 102 -x {3.1 2.3 14 ------- null}
h -t 22.4685112380952 -s 3 -d 2 -p rap_data -e 1024 -c 102 -i 44 -a 102 -x {3.1 2.3 -1 ------- null}
+ -t 22.5251726052995 -s 3 -d 2 -p rap_data -e 1024 -c 100 -i 47 -a 100 -x {3.1 2.3 16 ------- null}
r -t 22.5285112380952 -s 2 -d 3 -p rap_ack -e 44 -c 0 -i 45 -a 0 -x {2.3 3.1 10 ------- null}
+ -t 22.533822838721 -s 2 -d 0 -p rap_data -e 1024 -c 100 -i 48 -a 100 -x {2.4 0.1 6 ------- null}
- -t 22.533822838721 -s 2 -d 0 -p rap_data -e 1024 -c 100 -i 48 -a 100 -x {2.4 0.1 6 ------- null}
h -t 22.533822838721 -s 2 -d 0 -p rap_data -e 1024 -c 100 -i 48 -a 100 -x {2.4 0.1 -1 ------- null}
r -t 22.5685112380952 -s 3 -d 2 -p rap_data -e 1024 -c 100 -i 41 -a 100 -x {3.1 2.3 12 ------- null}
+ -t 22.5685112380952 -s 2 -d 3 -p rap_ack -e 44 -c 0 -i 49 -a 0 -x {2.3 3.1 12 ------- null}
- -t 22.5685112380952 -s 2 -d 3 -p rap_ack -e 44 -c 0 -i 49 -a 0 -x {2.3 3.1 12 ------- null}
h -t 22.5685112380952 -s 2 -d 3 -p rap_ack -e 44 -c 0 -i 49 -a 0 -x {2.3 3.1 -1 ------- null}
+ -t 22.5685 -s 2 -d 4 -p dummy -e 1024 -c 100 -i 0 -a 100
r -t 22.5892841720543 -s 2 -d 0 -p rap_data -e 1024 -c 100 -i 48 -a 100 -x {2.4 0.1 6 ------- null}
+ -t 22.5892841720543 -s 0 -d 2 -p rap_ack -e 44 -c 0 -i 50 -a 0 -x {0.1 2.4 6 ------- null}
- -t 22.5892841720543 -s 0 -d 2 -p rap_ack -e 44 -c 0 -i 50 -a 0 -x {0.1 2.4 6 ------- null}
h -t 22.5892841720543 -s 0 -d 2 -p rap_ack -e 44 -c 0 -i 50 -a 0 -x {0.1 2.4 -1 ------- null}
+ -t 22.5970165185291 -s 3 -d 2 -p ack -e 83 -c 2 -i 51 -a 2 -x {3.0 2.2 44 ---A--- null}
d -t 22.5970165185291 -s 3 -d 2 -p ack -e 83 -c 2 -i 51 -a 2 -x {3.0 2.2 44 ---A--- null}
- -t 22.6147969523809 -s 3 -d 2 -p rap_data -e 1024 -c 100 -i 47 -a 100 -x {3.1 2.3 16 ------- null}
h -t 22.6147969523809 -s 3 -d 2 -p rap_data -e 1024 -c 100 -i 47 -a 100 -x {3.1 2.3 -1 ------- null}
r -t 22.639518838721 -s 0 -d 2 -p rap_ack -e 44 -c 0 -i 50 -a 0 -x {0.1 2.4 6 ------- null}
r -t 22.674796952381 -s 2 -d 3 -p rap_ack -e 44 -c 0 -i 49 -a 0 -x {2.3 3.1 12 ------- null}
r -t 22.714796952381 -s 3 -d 2 -p rap_data -e 1024 -c 102 -i 44 -a 102 -x {3.1 2.3 14 ------- null}
+ -t 22.714796952381 -s 2 -d 3 -p rap_ack -e 44 -c 0 -i 52 -a 0 -x {2.3 3.1 14 ------- null}
- -t 22.714796952381 -s 2 -d 3 -p rap_ack -e 44 -c 0 -i 52 -a 0 -x {2.3 3.1 14 ------- null}
h -t 22.714796952381 -s 2 -d 3 -p rap_ack -e 44 -c 0 -i 52 -a 0 -x {2.3 3.1 -1 ------- null}
+ -t 22.7148 -s 2 -d 4 -p dummy -e 1024 -c 102 -i 0 -a 102
+ -t 22.7901209700879 -s 2 -d 0 -p rap_data -e 1024 -c 100 -i 53 -a 100 -x {2.4 0.1 7 ------- null}
- -t 22.7901209700879 -s 2 -d 0 -p rap_data -e 1024 -c 100 -i 53 -a 100 -x {2.4 0.1 7 ------- null}
h -t 22.7901209700879 -s 2 -d 0 -p rap_data -e 1024 -c 100 -i 53 -a 100 -x {2.4 0.1 -1 ------- null}
r -t 22.8210826666667 -s 2 -d 3 -p rap_ack -e 44 -c 0 -i 52 -a 0 -x {2.3 3.1 14 ------- null}
r -t 22.8455823034213 -s 2 -d 0 -p rap_data -e 1024 -c 100 -i 53 -a 100 -x {2.4 0.1 7 ------- null}
+ -t 22.8455823034213 -s 0 -d 2 -p rap_ack -e 44 -c 0 -i 54 -a 0 -x {0.1 2.4 7 ------- null}
- -t 22.8455823034213 -s 0 -d 2 -p rap_ack -e 44 -c 0 -i 54 -a 0 -x {0.1 2.4 7 ------- null}
h -t 22.8455823034213 -s 0 -d 2 -p rap_ack -e 44 -c 0 -i 54 -a 0 -x {0.1 2.4 -1 ------- null}
r -t 22.8610826666667 -s 3 -d 2 -p rap_data -e 1024 -c 100 -i 47 -a 100 -x {3.1 2.3 16 ------- null}
+ -t 22.8610826666667 -s 2 -d 3 -p rap_ack -e 44 -c 0 -i 55 -a 0 -x {2.3 3.1 16 ------- null}
- -t 22.8610826666667 -s 2 -d 3 -p rap_ack -e 44 -c 0 -i 55 -a 0 -x {2.3 3.1 16 ------- null}
h -t 22.8610826666667 -s 2 -d 3 -p rap_ack -e 44 -c 0 -i 55 -a 0 -x {2.3 3.1 -1 ------- null}
+ -t 22.8611 -s 2 -d 4 -p dummy -e 1024 -c 100 -i 0 -a 100
+ -t 22.8926402226347 -s 2 -d 0 -p rap_data -e 1024 -c 101 -i 56 -a 101 -x {2.4 0.1 8 ------- null}
- -t 22.8926402226347 -s 2 -d 0 -p rap_data -e 1024 -c 101 -i 56 -a 101 -x {2.4 0.1 8 ------- null}
h -t 22.8926402226347 -s 2 -d 0 -p rap_data -e 1024 -c 101 -i 56 -a 101 -x {2.4 0.1 -1 ------- null}
r -t 22.8958169700879 -s 0 -d 2 -p rap_ack -e 44 -c 0 -i 54 -a 0 -x {0.1 2.4 7 ------- null}
r -t 22.948101555968 -s 2 -d 0 -p rap_data -e 1024 -c 101 -i 56 -a 101 -x {2.4 0.1 8 ------- null}
+ -t 22.948101555968 -s 0 -d 2 -p rap_ack -e 44 -c 0 -i 57 -a 0 -x {0.1 2.4 8 ------- null}
- -t 22.948101555968 -s 0 -d 2 -p rap_ack -e 44 -c 0 -i 57 -a 0 -x {0.1 2.4 8 ------- null}
h -t 22.948101555968 -s 0 -d 2 -p rap_ack -e 44 -c 0 -i 57 -a 0 -x {0.1 2.4 -1 ------- null}
r -t 22.9673683809524 -s 2 -d 3 -p rap_ack -e 44 -c 0 -i 55 -a 0 -x {2.3 3.1 16 ------- null}
r -t 22.9983362226347 -s 0 -d 2 -p rap_ack -e 44 -c 0 -i 57 -a 0 -x {0.1 2.4 8 ------- null}
+ -t 23.0970165185291 -s 3 -d 2 -p ack -e 83 -c 2 -i 58 -a 2 -x {3.0 2.2 44 ---A--- null}
- -t 23.0970165185291 -s 3 -d 2 -p ack -e 83 -c 2 -i 58 -a 2 -x {3.0 2.2 44 ---A--- null}
h -t 23.0970165185291 -s 3 -d 2 -p ack -e 83 -c 2 -i 58 -a 2 -x {3.0 2.2 -1 ---A--- null}
r -t 23.2088736613862 -s 3 -d 2 -p ack -e 83 -c 2 -i 58 -a 2 -x {3.0 2.2 44 ---A--- null}
+ -t 23.2514576065485 -s 2 -d 0 -p rap_data -e 1024 -c 100 -i 59 -a 100 -x {2.4 0.1 9 ------- null}
- -t 23.2514576065485 -s 2 -d 0 -p rap_data -e 1024 -c 100 -i 59 -a 100 -x {2.4 0.1 9 ------- null}
h -t 23.2514576065485 -s 2 -d 0 -p rap_data -e 1024 -c 100 -i 59 -a 100 -x {2.4 0.1 -1 ------- null}
+ -t 23.3 -s 2 -d 3 -p tcp -e 40 -c 2 -i 60 -a 2 -x {2.2 3.0 44 ------- null}
- -t 23.3 -s 2 -d 3 -p tcp -e 40 -c 2 -i 60 -a 2 -x {2.2 3.0 44 ------- null}
h -t 23.3 -s 2 -d 3 -p tcp -e 40 -c 2 -i 60 -a 2 -x {2.2 3.0 -1 ------- null}
+ -t 23.3027172328219 -s 2 -d 0 -p rap_data -e 1024 -c 101 -i 61 -a 101 -x {2.4 0.1 10 ------- null}
- -t 23.3027172328219 -s 2 -d 0 -p rap_data -e 1024 -c 101 -i 61 -a 101 -x {2.4 0.1 10 ------- null}
h -t 23.3027172328219 -s 2 -d 0 -p rap_data -e 1024 -c 101 -i 61 -a 101 -x {2.4 0.1 -1 ------- null}
r -t 23.3069189398818 -s 2 -d 0 -p rap_data -e 1024 -c 100 -i 59 -a 100 -x {2.4 0.1 9 ------- null}
+ -t 23.3069189398818 -s 0 -d 2 -p rap_ack -e 44 -c 0 -i 62 -a 0 -x {0.1 2.4 9 ------- null}
- -t 23.3069189398818 -s 0 -d 2 -p rap_ack -e 44 -c 0 -i 62 -a 0 -x {0.1 2.4 9 ------- null}
h -t 23.3069189398818 -s 0 -d 2 -p rap_ack -e 44 -c 0 -i 62 -a 0 -x {0.1 2.4 -1 ------- null}
+ -t 23.3539768590952 -s 2 -d 0 -p rap_data -e 1024 -c 102 -i 63 -a 102 -x {2.4 0.1 11 ------- null}
- -t 23.3539768590952 -s 2 -d 0 -p rap_data -e 1024 -c 102 -i 63 -a 102 -x {2.4 0.1 11 ------- null}
h -t 23.3539768590952 -s 2 -d 0 -p rap_data -e 1024 -c 102 -i 63 -a 102 -x {2.4 0.1 -1 ------- null}
r -t 23.3571536065485 -s 0 -d 2 -p rap_ack -e 44 -c 0 -i 62 -a 0 -x {0.1 2.4 9 ------- null}
r -t 23.3581785661552 -s 2 -d 0 -p rap_data -e 1024 -c 101 -i 61 -a 101 -x {2.4 0.1 10 ------- null}
+ -t 23.3581785661552 -s 0 -d 2 -p rap_ack -e 44 -c 0 -i 64 -a 0 -x {0.1 2.4 10 ------- null}
- -t 23.3581785661552 -s 0 -d 2 -p rap_ack -e 44 -c 0 -i 64 -a 0 -x {0.1 2.4 10 ------- null}
h -t 23.3581785661552 -s 0 -d 2 -p rap_ack -e 44 -c 0 -i 64 -a 0 -x {0.1 2.4 -1 ------- null}
+ -t 23.4052364853686 -s 2 -d 0 -p rap_data -e 1024 -c 100 -i 65 -a 100 -x {2.4 0.1 12 ------- null}
- -t 23.4052364853686 -s 2 -d 0 -p rap_data -e 1024 -c 100 -i 65 -a 100 -x {2.4 0.1 12 ------- null}
h -t 23.4052364853686 -s 2 -d 0 -p rap_data -e 1024 -c 100 -i 65 -a 100 -x {2.4 0.1 -1 ------- null}
r -t 23.4057142857143 -s 2 -d 3 -p tcp -e 40 -c 2 -i 60 -a 2 -x {2.2 3.0 44 ------- null}
r -t 23.4084132328219 -s 0 -d 2 -p rap_ack -e 44 -c 0 -i 64 -a 0 -x {0.1 2.4 10 ------- null}
r -t 23.4094381924286 -s 2 -d 0 -p rap_data -e 1024 -c 102 -i 63 -a 102 -x {2.4 0.1 11 ------- null}
+ -t 23.4094381924286 -s 0 -d 2 -p rap_ack -e 44 -c 0 -i 66 -a 0 -x {0.1 2.4 11 ------- null}
- -t 23.4094381924286 -s 0 -d 2 -p rap_ack -e 44 -c 0 -i 66 -a 0 -x {0.1 2.4 11 ------- null}
h -t 23.4094381924286 -s 0 -d 2 -p rap_ack -e 44 -c 0 -i 66 -a 0 -x {0.1 2.4 -1 ------- null}
+ -t 23.4096737261905 -s 2 -d 3 -p tcp -e 83 -c 2 -i 67 -a 2 -x {2.2 3.0 44 ---A--- null}
- -t 23.4096737261905 -s 2 -d 3 -p tcp -e 83 -c 2 -i 67 -a 2 -x {2.2 3.0 44 ---A--- null}
h -t 23.4096737261905 -s 2 -d 3 -p tcp -e 83 -c 2 -i 67 -a 2 -x {2.2 3.0 -1 ---A--- null}
+ -t 23.4096737261905 -s 2 -d 3 -p tcp -e 83 -c 2 -i 68 -a 2 -x {2.2 3.0 87 ------- null}
+ -t 23.4096737261905 -s 2 -d 3 -p tcp -e 83 -c 2 -i 69 -a 2 -x {2.2 3.0 130 ------- null}
d -t 23.4096737261905 -s 2 -d 3 -p tcp -e 83 -c 2 -i 69 -a 2 -x {2.2 3.0 130 ------- null}
- -t 23.4215308690476 -s 2 -d 3 -p tcp -e 83 -c 2 -i 68 -a 2 -x {2.2 3.0 87 ------- null}
h -t 23.4215308690476 -s 2 -d 3 -p tcp -e 83 -c 2 -i 68 -a 2 -x {2.2 3.0 -1 ------- null}
r -t 23.4596728590952 -s 0 -d 2 -p rap_ack -e 44 -c 0 -i 66 -a 0 -x {0.1 2.4 11 ------- null}
r -t 23.460697818702 -s 2 -d 0 -p rap_data -e 1024 -c 100 -i 65 -a 100 -x {2.4 0.1 12 ------- null}
+ -t 23.460697818702 -s 0 -d 2 -p rap_ack -e 44 -c 0 -i 70 -a 0 -x {0.1 2.4 12 ------- null}
- -t 23.460697818702 -s 0 -d 2 -p rap_ack -e 44 -c 0 -i 70 -a 0 -x {0.1 2.4 12 ------- null}
h -t 23.460697818702 -s 0 -d 2 -p rap_ack -e 44 -c 0 -i 70 -a 0 -x {0.1 2.4 -1 ------- null}
r -t 23.5109324853686 -s 0 -d 2 -p rap_ack -e 44 -c 0 -i 70 -a 0 -x {0.1 2.4 12 ------- null}
r -t 23.5215308690476 -s 2 -d 3 -p tcp -e 83 -c 2 -i 67 -a 2 -x {2.2 3.0 44 ---A--- null}
+ -t 23.5215308690476 -s 3 -d 2 -p rap_data -e 1024 -c 102 -i 71 -a 102 -x {3.1 2.3 1 ------- null}
- -t 23.5215308690476 -s 3 -d 2 -p rap_data -e 1024 -c 102 -i 71 -a 102 -x {3.1 2.3 1 ------- null}
h -t 23.5215308690476 -s 3 -d 2 -p rap_data -e 1024 -c 102 -i 71 -a 102 -x {3.1 2.3 -1 ------- null}
r -t 23.5333880119048 -s 2 -d 3 -p tcp -e 83 -c 2 -i 68 -a 2 -x {2.2 3.0 87 ------- null}
+ -t 23.5365308690476 -s 3 -d 2 -p rap_data -e 1024 -c 101 -i 72 -a 101 -x {3.1 2.3 2 ------- null}
+ -t 23.6 -s 3 -d 2 -p ack -e 40 -c 2 -i 73 -a 2 -x {3.0 2.2 87 ------- null}
d -t 23.6 -s 3 -d 2 -p ack -e 40 -c 2 -i 73 -a 2 -x {3.0 2.2 87 ------- null}
- -t 23.6678165833334 -s 3 -d 2 -p rap_data -e 1024 -c 101 -i 72 -a 101 -x {3.1 2.3 2 ------- null}
h -t 23.6678165833334 -s 3 -d 2 -p rap_data -e 1024 -c 101 -i 72 -a 101 -x {3.1 2.3 -1 ------- null}
r -t 23.7678165833334 -s 3 -d 2 -p rap_data -e 1024 -c 102 -i 71 -a 102 -x {3.1 2.3 1 ------- null}
+ -t 23.7678165833334 -s 2 -d 3 -p rap_ack -e 44 -c 0 -i 74 -a 0 -x {2.3 3.1 1 ------- null}
- -t 23.7678165833334 -s 2 -d 3 -p rap_ack -e 44 -c 0 -i 74 -a 0 -x {2.3 3.1 1 ------- null}
h -t 23.7678165833334 -s 2 -d 3 -p rap_ack -e 44 -c 0 -i 74 -a 0 -x {2.3 3.1 -1 ------- null}
+ -t 23.7678 -s 2 -d 4 -p dummy -e 1024 -c 102 -i 0 -a 102
+ -t 23.8331315855655 -s 2 -d 3 -p tcp -e 83 -c 2 -i 75 -a 2 -x {2.2 3.0 173 ------- null}
- -t 23.8331315855655 -s 2 -d 3 -p tcp -e 83 -c 2 -i 75 -a 2 -x {2.2 3.0 173 ------- null}
h -t 23.8331315855655 -s 2 -d 3 -p tcp -e 83 -c 2 -i 75 -a 2 -x {2.2 3.0 -1 ------- null}
+ -t 23.8331315855655 -s 2 -d 3 -p tcp -e 83 -c 2 -i 76 -a 2 -x {2.2 3.0 216 ------- null}
- -t 23.8449887284227 -s 2 -d 3 -p tcp -e 83 -c 2 -i 76 -a 2 -x {2.2 3.0 216 ------- null}
h -t 23.8449887284227 -s 2 -d 3 -p tcp -e 83 -c 2 -i 76 -a 2 -x {2.2 3.0 -1 ------- null}
r -t 23.8741022976191 -s 2 -d 3 -p rap_ack -e 44 -c 0 -i 74 -a 0 -x {2.3 3.1 1 ------- null}