V -t * -v 1.0a5 -a 0
A -t * -n 1 -p 0 -o 255 -c 30 -a 1
A -t * -h 1 -m 4194303 -s 8
c -t * -i 4 -n brown
c -t * -i 0 -n red
c -t * -i 5 -n tan
c -t * -i 1 -n blue
c -t * -i 6 -n gold
c -t * -i 2 -n chocolate
c -t * -i 7 -n black
c -t * -i 3 -n red
n -t * -a 4 -s 4 -S UP -v circle -c tan
n -t * -a 0 -s 0 -S UP -v circle -c black
n -t * -a 5 -s 5 -S UP -v circle -c red
n -t * -a 1 -s 1 -S UP -v circle -c blue
n -t * -a 2 -s 2 -S UP -v circle -c chocolate
n -t * -a 3 -s 3 -S UP -v circle -c gold
l -t * -s 0 -d 1 -S UP -r 1500000 -D 0.01 -c black -o right
l -t * -s 1 -d 2 -S UP -r 1500000 -D 0.01 -c black -o right
l -t * -s 2 -d 3 -S UP -r 1500000 -D 0.01 -c black -o right
l -t * -s 3 -d 4 -S UP -r 1500000 -D 0.01 -c green -o 60deg
l -t * -s 3 -d 5 -S UP -r 1500000 -D 0.01 -c black -o 300deg
a -t 0.00000000000000000 -s 5 -d 4194304 -n srm(5)
f -t 0.00000000000000000 -s 5 -d 4194304 -n C2_ -a srm(5) -v  -T v
f -t 0.00000000000000000 -s 5 -d 4194304 -n C1_ -a srm(5) -v  -T v
a -t 0.00000000000000000 -s 1 -d 4194304 -n srm(1)
f -t 0.00000000000000000 -s 1 -d 4194304 -n C2_ -a srm(1) -v  -T v
f -t 0.00000000000000000 -s 1 -d 4194304 -n C1_ -a srm(1) -v  -T v
a -t 0.00000000000000000 -s 2 -d 4194304 -n srm(2)
f -t 0.00000000000000000 -s 2 -d 4194304 -n C2_ -a srm(2) -v  -T v
f -t 0.00000000000000000 -s 2 -d 4194304 -n C1_ -a srm(2) -v  -T v
a -t 0.00000000000000000 -s 3 -d 4194304 -n srm(3)
f -t 0.00000000000000000 -s 3 -d 4194304 -n C2_ -a srm(3) -v  -T v
f -t 0.00000000000000000 -s 3 -d 4194304 -n C1_ -a srm(3) -v  -T v
a -t 0.00000000000000000 -s 4 -d 4194304 -n srm(4)
f -t 0.00000000000000000 -s 4 -d 4194304 -n C2_ -a srm(4) -v  -T v
f -t 0.00000000000000000 -s 4 -d 4194304 -n C1_ -a srm(4) -v  -T v
a -t 0.00000000000000000 -s 0 -d 4194304 -n srm(0)
f -t 0.00000000000000000 -s 0 -d 4194304 -n C2_ -a srm(0) -v  -T v
f -t 0.00000000000000000 -s 0 -d 4194304 -n C1_ -a srm(0) -v  -T v
v -t 0.00000000000000000 monitor_agent 0 srm(0)
v -t 0.00000000000000000 monitor_agent 1 srm(1)
v -t 0.00000000000000000 monitor_agent 2 srm(2)
v -t 0.00000000000000000 monitor_agent 3 srm(3)
v -t 0.00000000000000000 monitor_agent 4 srm(4)
v -t 0.00000000000000000 monitor_agent 5 srm(5)
v -t 0 set_rate -40.0 1
+ -t 1.9 -s 0 -d 1 -p SRM -e 36 -c 1 -i 0 -a 1 -x {0.1 4194304.0 -1 ------- SRM_SESS}
- -t 1.9 -s 0 -d 1 -p SRM -e 36 -c 1 -i 0 -a 1 -x {0.1 4194304.0 -1 ------- SRM_SESS}
h -t 1.9 -s 0 -d 1 -p SRM -e 36 -c 1 -i 0 -a 1 -x {0.1 4194304.0 -1 ------- SRM_SESS}
r -t 1.91019 -s 0 -d 1 -p SRM -e 36 -c 1 -i 0 -a 1 -x {0.1 4194304.0 -1 ------- SRM_SESS}
+ -t 1.91019 -s 1 -d 2 -p SRM -e 36 -c 1 -i 0 -a 1 -x {0.1 4194304.0 -1 ------- SRM_SESS}
- -t 1.91019 -s 1 -d 2 -p SRM -e 36 -c 1 -i 0 -a 1 -x {0.1 4194304.0 -1 ------- SRM_SESS}
h -t 1.91019 -s 1 -d 2 -p SRM -e 36 -c 1 -i 0 -a 1 -x {0.1 4194304.0 -1 ------- SRM_SESS}
r -t 1.92039 -s 1 -d 2 -p SRM -e 36 -c 1 -i 0 -a 1 -x {0.1 4194304.0 -1 ------- SRM_SESS}
+ -t 1.92039 -s 2 -d 3 -p SRM -e 36 -c 1 -i 0 -a 1 -x {0.1 4194304.0 -1 ------- SRM_SESS}
- -t 1.92039 -s 2 -d 3 -p SRM -e 36 -c 1 -i 0 -a 1 -x {0.1 4194304.0 -1 ------- SRM_SESS}
h -t 1.92039 -s 2 -d 3 -p SRM -e 36 -c 1 -i 0 -a 1 -x {0.1 4194304.0 -1 ------- SRM_SESS}
+ -t 1.92631 -s 1 -d 0 -p SRM -e 52 -c 2 -i 1 -a 2 -x {1.1 4194304.0 -1 ------- SRM_SESS}
- -t 1.92631 -s 1 -d 0 -p SRM -e 52 -c 2 -i 1 -a 2 -x {1.1 4194304.0 -1 ------- SRM_SESS}
h -t 1.92631 -s 1 -d 0 -p SRM -e 52 -c 2 -i 1 -a 2 -x {1.1 4194304.0 -1 ------- SRM_SESS}
+ -t 1.92631 -s 1 -d 2 -p SRM -e 52 -c 2 -i 1 -a 2 -x {1.1 4194304.0 -1 ------- SRM_SESS}
- -t 1.92631 -s 1 -d 2 -p SRM -e 52 -c 2 -i 1 -a 2 -x {1.1 4194304.0 -1 ------- SRM_SESS}
h -t 1.92631 -s 1 -d 2 -p SRM -e 52 -c 2 -i 1 -a 2 -x {1.1 4194304.0 -1 ------- SRM_SESS}
r -t 1.93058 -s 2 -d 3 -p SRM -e 36 -c 1 -i 0 -a 1 -x {0.1 4194304.0 -1 ------- SRM_SESS}
+ -t 1.93058 -s 3 -d 4 -p SRM -e 36 -c 1 -i 0 -a 1 -x {0.1 4194304.0 -1 ------- SRM_SESS}
- -t 1.93058 -s 3 -d 4 -p SRM -e 36 -c 1 -i 0 -a 1 -x {0.1 4194304.0 -1 ------- SRM_SESS}
h -t 1.93058 -s 3 -d 4 -p SRM -e 36 -c 1 -i 0 -a 1 -x {0.1 4194304.0 -1 ------- SRM_SESS}
+ -t 1.93058 -s 3 -d 5 -p SRM -e 36 -c 1 -i 0 -a 1 -x {0.1 4194304.0 -1 ------- SRM_SESS}
- -t 1.93058 -s 3 -d 5 -p SRM -e 36 -c 1 -i 0 -a 1 -x {0.1 4194304.0 -1 ------- SRM_SESS}
h -t 1.93058 -s 3 -d 5 -p SRM -e 36 -c 1 -i 0 -a 1 -x {0.1 4194304.0 -1 ------- SRM_SESS}
r -t 1.93658 -s 1 -d 0 -p SRM -e 52 -c 2 -i 1 -a 2 -x {1.1 4194304.0 -1 ------- SRM_SESS}
r -t 1.93658 -s 1 -d 2 -p SRM -e 52 -c 2 -i 1 -a 2 -x {1.1 4194304.0 -1 ------- SRM_SESS}
+ -t 1.93658 -s 2 -d 3 -p SRM -e 52 -c 2 -i 1 -a 2 -x {1.1 4194304.0 -1 ------- SRM_SESS}
- -t 1.93658 -s 2 -d 3 -p SRM -e 52 -c 2 -i 1 -a 2 -x {1.1 4194304.0 -1 ------- SRM_SESS}
h -t 1.93658 -s 2 -d 3 -p SRM -e 52 -c 2 -i 1 -a 2 -x {1.1 4194304.0 -1 ------- SRM_SESS}
r -t 1.94077 -s 3 -d 4 -p SRM -e 36 -c 1 -i 0 -a 1 -x {0.1 4194304.0 -1 ------- SRM_SESS}
r -t 1.94077 -s 3 -d 5 -p SRM -e 36 -c 1 -i 0 -a 1 -x {0.1 4194304.0 -1 ------- SRM_SESS}
+ -t 1.94379 -s 5 -d 3 -p SRM -e 52 -c 6 -i 2 -a 6 -x {5.1 4194304.0 -1 ------- SRM_SESS}
- -t 1.94379 -s 5 -d 3 -p SRM -e 52 -c 6 -i 2 -a 6 -x {5.1 4194304.0 -1 ------- SRM_SESS}
h -t 1.94379 -s 5 -d 3 -p SRM -e 52 -c 6 -i 2 -a 6 -x {5.1 4194304.0 -1 ------- SRM_SESS}
r -t 1.94686 -s 2 -d 3 -p SRM -e 52 -c 2 -i 1 -a 2 -x {1.1 4194304.0 -1 ------- SRM_SESS}
+ -t 1.94686 -s 3 -d 4 -p SRM -e 52 -c 2 -i 1 -a 2 -x {1.1 4194304.0 -1 ------- SRM_SESS}
- -t 1.94686 -s 3 -d 4 -p SRM -e 52 -c 2 -i 1 -a 2 -x {1.1 4194304.0 -1 ------- SRM_SESS}
h -t 1.94686 -s 3 -d 4 -p SRM -e 52 -c 2 -i 1 -a 2 -x {1.1 4194304.0 -1 ------- SRM_SESS}
+ -t 1.94686 -s 3 -d 5 -p SRM -e 52 -c 2 -i 1 -a 2 -x {1.1 4194304.0 -1 ------- SRM_SESS}
- -t 1.94686 -s 3 -d 5 -p SRM -e 52 -c 2 -i 1 -a 2 -x {1.1 4194304.0 -1 ------- SRM_SESS}
h -t 1.94686 -s 3 -d 5 -p SRM -e 52 -c 2 -i 1 -a 2 -x {1.1 4194304.0 -1 ------- SRM_SESS}
r -t 1.95407 -s 5 -d 3 -p SRM -e 52 -c 6 -i 2 -a 6 -x {5.1 4194304.0 -1 ------- SRM_SESS}
+ -t 1.95407 -s 3 -d 2 -p SRM -e 52 -c 6 -i 2 -a 6 -x {5.1 4194304.0 -1 ------- SRM_SESS}
- -t 1.95407 -s 3 -d 2 -p SRM -e 52 -c 6 -i 2 -a 6 -x {5.1 4194304.0 -1 ------- SRM_SESS}
h -t 1.95407 -s 3 -d 2 -p SRM -e 52 -c 6 -i 2 -a 6 -x {5.1 4194304.0 -1 ------- SRM_SESS}
+ -t 1.95407 -s 3 -d 4 -p SRM -e 52 -c 6 -i 2 -a 6 -x {5.1 4194304.0 -1 ------- SRM_SESS}
- -t 1.95407 -s 3 -d 4 -p SRM -e 52 -c 6 -i 2 -a 6 -x {5.1 4194304.0 -1 ------- SRM_SESS}
h -t 1.95407 -s 3 -d 4 -p SRM -e 52 -c 6 -i 2 -a 6 -x {5.1 4194304.0 -1 ------- SRM_SESS}
r -t 1.95714 -s 3 -d 4 -p SRM -e 52 -c 2 -i 1 -a 2 -x {1.1 4194304.0 -1 ------- SRM_SESS}
r -t 1.95714 -s 3 -d 5 -p SRM -e 52 -c 2 -i 1 -a 2 -x {1.1 4194304.0 -1 ------- SRM_SESS}
r -t 1.96435 -s 3 -d 2 -p SRM -e 52 -c 6 -i 2 -a 6 -x {5.1 4194304.0 -1 ------- SRM_SESS}
+ -t 1.96435 -s 2 -d 1 -p SRM -e 52 -c 6 -i 2 -a 6 -x {5.1 4194304.0 -1 ------- SRM_SESS}
- -t 1.96435 -s 2 -d 1 -p SRM -e 52 -c 6 -i 2 -a 6 -x {5.1 4194304.0 -1 ------- SRM_SESS}
h -t 1.96435 -s 2 -d 1 -p SRM -e 52 -c 6 -i 2 -a 6 -x {5.1 4194304.0 -1 ------- SRM_SESS}
r -t 1.96435 -s 3 -d 4 -p SRM -e 52 -c 6 -i 2 -a 6 -x {5.1 4194304.0 -1 ------- SRM_SESS}
r -t 1.97462 -s 2 -d 1 -p SRM -e 52 -c 6 -i 2 -a 6 -x {5.1 4194304.0 -1 ------- SRM_SESS}
+ -t 1.97462 -s 1 -d 0 -p SRM -e 52 -c 6 -i 2 -a 6 -x {5.1 4194304.0 -1 ------- SRM_SESS}
- -t 1.97462 -s 1 -d 0 -p SRM -e 52 -c 6 -i 2 -a 6 -x {5.1 4194304.0 -1 ------- SRM_SESS}
h -t 1.97462 -s 1 -d 0 -p SRM -e 52 -c 6 -i 2 -a 6 -x {5.1 4194304.0 -1 ------- SRM_SESS}
r -t 1.9849 -s 1 -d 0 -p SRM -e 52 -c 6 -i 2 -a 6 -x {5.1 4194304.0 -1 ------- SRM_SESS}
+ -t 1.99173 -s 3 -d 2 -p SRM -e 84 -c 4 -i 3 -a 4 -x {3.1 4194304.0 -1 ------- SRM_SESS}
- -t 1.99173 -s 3 -d 2 -p SRM -e 84 -c 4 -i 3 -a 4 -x {3.1 4194304.0 -1 ------- SRM_SESS}
h -t 1.99173 -s 3 -d 2 -p SRM -e 84 -c 4 -i 3 -a 4 -x {3.1 4194304.0 -1 ------- SRM_SESS}
+ -t 1.99173 -s 3 -d 4 -p SRM -e 84 -c 4 -i 3 -a 4 -x {3.1 4194304.0 -1 ------- SRM_SESS}
- -t 1.99173 -s 3 -d 4 -p SRM -e 84 -c 4 -i 3 -a 4 -x {3.1 4194304.0 -1 ------- SRM_SESS}
h -t 1.99173 -s 3 -d 4 -p SRM -e 84 -c 4 -i 3 -a 4 -x {3.1 4194304.0 -1 ------- SRM_SESS}
+ -t 1.99173 -s 3 -d 5 -p SRM -e 84 -c 4 -i 3 -a 4 -x {3.1 4194304.0 -1 ------- SRM_SESS}
- -t 1.99173 -s 3 -d 5 -p SRM -e 84 -c 4 -i 3 -a 4 -x {3.1 4194304.0 -1 ------- SRM_SESS}
h -t 1.99173 -s 3 -d 5 -p SRM -e 84 -c 4 -i 3 -a 4 -x {3.1 4194304.0 -1 ------- SRM_SESS}
r -t 2.00218 -s 3 -d 2 -p SRM -e 84 -c 4 -i 3 -a 4 -x {3.1 4194304.0 -1 ------- SRM_SESS}
+ -t 2.00218 -s 2 -d 1 -p SRM -e 84 -c 4 -i 3 -a 4 -x {3.1 4194304.0 -1 ------- SRM_SESS}
- -t 2.00218 -s 2 -d 1 -p SRM -e 84 -c 4 -i 3 -a 4 -x {3.1 4194304.0 -1 ------- SRM_SESS}
h -t 2.00218 -s 2 -d 1 -p SRM -e 84 -c 4 -i 3 -a 4 -x {3.1 4194304.0 -1 ------- SRM_SESS}
r -t 2.00218 -s 3 -d 4 -p SRM -e 84 -c 4 -i 3 -a 4 -x {3.1 4194304.0 -1 ------- SRM_SESS}
r -t 2.00218 -s 3 -d 5 -p SRM -e 84 -c 4 -i 3 -a 4 -x {3.1 4194304.0 -1 ------- SRM_SESS}
+ -t 2.00655 -s 4 -d 3 -p SRM -e 100 -c 5 -i 4 -a 5 -x {4.1 4194304.0 -1 ------- SRM_SESS}
- -t 2.00655 -s 4 -d 3 -p SRM -e 100 -c 5 -i 4 -a 5 -x {4.1 4194304.0 -1 ------- SRM_SESS}
h -t 2.00655 -s 4 -d 3 -p SRM -e 100 -c 5 -i 4 -a 5 -x {4.1 4194304.0 -1 ------- SRM_SESS}
r -t 2.01263 -s 2 -d 1 -p SRM -e 84 -c 4 -i 3 -a 4 -x {3.1 4194304.0 -1 ------- SRM_SESS}
+ -t 2.01263 -s 1 -d 0 -p SRM -e 84 -c 4 -i 3 -a 4 -x {3.1 4194304.0 -1 ------- SRM_SESS}
- -t 2.01263 -s 1 -d 0 -p SRM -e 84 -c 4 -i 3 -a 4 -x {3.1 4194304.0 -1 ------- SRM_SESS}
h -t 2.01263 -s 1 -d 0 -p SRM -e 84 -c 4 -i 3 -a 4 -x {3.1 4194304.0 -1 ------- SRM_SESS}
r -t 2.01709 -s 4 -d 3 -p SRM -e 100 -c 5 -i 4 -a 5 -x {4.1 4194304.0 -1 ------- SRM_SESS}
+ -t 2.01709 -s 3 -d 2 -p SRM -e 100 -c 5 -i 4 -a 5 -x {4.1 4194304.0 -1 ------- SRM_SESS}
- -t 2.01709 -s 3 -d 2 -p SRM -e 100 -c 5 -i 4 -a 5 -x {4.1 4194304.0 -1 ------- SRM_SESS}
h -t 2.01709 -s 3 -d 2 -p SRM -e 100 -c 5 -i 4 -a 5 -x {4.1 4194304.0 -1 ------- SRM_SESS}
+ -t 2.01709 -s 3 -d 5 -p SRM -e 100 -c 5 -i 4 -a 5 -x {4.1 4194304.0 -1 ------- SRM_SESS}
- -t 2.01709 -s 3 -d 5 -p SRM -e 100 -c 5 -i 4 -a 5 -x {4.1 4194304.0 -1 ------- SRM_SESS}
h -t 2.01709 -s 3 -d 5 -p SRM -e 100 -c 5 -i 4 -a 5 -x {4.1 4194304.0 -1 ------- SRM_SESS}
r -t 2.02307 -s 1 -d 0 -p SRM -e 84 -c 4 -i 3 -a 4 -x {3.1 4194304.0 -1 ------- SRM_SESS}
r -t 2.02762 -s 3 -d 2 -p SRM -e 100 -c 5 -i 4 -a 5 -x {4.1 4194304.0 -1 ------- SRM_SESS}
+ -t 2.02762 -s 2 -d 1 -p SRM -e 100 -c 5 -i 4 -a 5 -x {4.1 4194304.0 -1 ------- SRM_SESS}
- -t 2.02762 -s 2 -d 1 -p SRM -e 100 -c 5 -i 4 -a 5 -x {4.1 4194304.0 -1 ------- SRM_SESS}
h -t 2.02762 -s 2 -d 1 -p SRM -e 100 -c 5 -i 4 -a 5 -x {4.1 4194304.0 -1 ------- SRM_SESS}
r -t 2.02762 -s 3 -d 5 -p SRM -e 100 -c 5 -i 4 -a 5 -x {4.1 4194304.0 -1 ------- SRM_SESS}
r -t 2.03815 -s 2 -d 1 -p SRM -e 100 -c 5 -i 4 -a 5 -x {4.1 4194304.0 -1 ------- SRM_SESS}
+ -t 2.03815 -s 1 -d 0 -p SRM -e 100 -c 5 -i 4 -a 5 -x {4.1 4194304.0 -1 ------- SRM_SESS}
- -t 2.03815 -s 1 -d 0 -p SRM -e 100 -c 5 -i 4 -a 5 -x {4.1 4194304.0 -1 ------- SRM_SESS}
h -t 2.03815 -s 1 -d 0 -p SRM -e 100 -c 5 -i 4 -a 5 -x {4.1 4194304.0 -1 ------- SRM_SESS}
r -t 2.04869 -s 1 -d 0 -p SRM -e 100 -c 5 -i 4 -a 5 -x {4.1 4194304.0 -1 ------- SRM_SESS}
+ -t 2.05112 -s 2 -d 1 -p SRM -e 116 -c 3 -i 5 -a 3 -x {2.1 4194304.0 -1 ------- SRM_SESS}
- -t 2.05112 -s 2 -d 1 -p SRM -e 116 -c 3 -i 5 -a 3 -x {2.1 4194304.0 -1 ------- SRM_SESS}
h -t 2.05112 -s 2 -d 1 -p SRM -e 116 -c 3 -i 5 -a 3 -x {2.1 4194304.0 -1 ------- SRM_SESS}
+ -t 2.05112 -s 2 -d 3 -p SRM -e 116 -c 3 -i 5 -a 3 -x {2.1 4194304.0 -1 ------- SRM_SESS}
- -t 2.05112 -s 2 -d 3 -p SRM -e 116 -c 3 -i 5 -a 3 -x {2.1 4194304.0 -1 ------- SRM_SESS}
h -t 2.05112 -s 2 -d 3 -p SRM -e 116 -c 3 -i 5 -a 3 -x {2.1 4194304.0 -1 ------- SRM_SESS}
r -t 2.06174 -s 2 -d 1 -p SRM -e 116 -c 3 -i 5 -a 3 -x {2.1 4194304.0 -1 ------- SRM_SESS}
+ -t 2.06174 -s 1 -d 0 -p SRM -e 116 -c 3 -i 5 -a 3 -x {2.1 4194304.0 -1 ------- SRM_SESS}
- -t 2.06174 -s 1 -d 0 -p SRM -e 116 -c 3 -i 5 -a 3 -x {2.1 4194304.0 -1 ------- SRM_SESS}
h -t 2.06174 -s 1 -d 0 -p SRM -e 116 -c 3 -i 5 -a 3 -x {2.1 4194304.0 -1 ------- SRM_SESS}
r -t 2.06174 -s 2 -d 3 -p SRM -e 116 -c 3 -i 5 -a 3 -x {2.1 4194304.0 -1 ------- SRM_SESS}
+ -t 2.06174 -s 3 -d 4 -p SRM -e 116 -c 3 -i 5 -a 3 -x {2.1 4194304.0 -1 ------- SRM_SESS}
- -t 2.06174 -s 3 -d 4 -p SRM -e 116 -c 3 -i 5 -a 3 -x {2.1 4194304.0 -1 ------- SRM_SESS}
h -t 2.06174 -s 3 -d 4 -p SRM -e 116 -c 3 -i 5 -a 3 -x {2.1 4194304.0 -1 ------- SRM_SESS}
+ -t 2.06174 -s 3 -d 5 -p SRM -e 116 -c 3 -i 5 -a 3 -x {2.1 4194304.0 -1 ------- SRM_SESS}
- -t 2.06174 -s 3 -d 5 -p SRM -e 116 -c 3 -i 5 -a 3 -x {2.1 4194304.0 -1 ------- SRM_SESS}
h -t 2.06174 -s 3 -d 5 -p SRM -e 116 -c 3 -i 5 -a 3 -x {2.1 4194304.0 -1 ------- SRM_SESS}
r -t 2.07236 -s 1 -d 0 -p SRM -e 116 -c 3 -i 5 -a 3 -x {2.1 4194304.0 -1 ------- SRM_SESS}
r -t 2.07236 -s 3 -d 4 -p SRM -e 116 -c 3 -i 5 -a 3 -x {2.1 4194304.0 -1 ------- SRM_SESS}
r -t 2.07236 -s 3 -d 5 -p SRM -e 116 -c 3 -i 5 -a 3 -x {2.1 4194304.0 -1 ------- SRM_SESS}
+ -t 2.80941 -s 0 -d 1 -p SRM -e 116 -c 1 -i 6 -a 1 -x {0.1 4194304.0 -1 ------- SRM_SESS}
- -t 2.80941 -s 0 -d 1 -p SRM -e 116 -c 1 -i 6 -a 1 -x {0.1 4194304.0 -1 ------- SRM_SESS}
h -t 2.80941 -s 0 -d 1 -p SRM -e 116 -c 1 -i 6 -a 1 -x {0.1 4194304.0 -1 ------- SRM_SESS}
r -t 2.82003 -s 0 -d 1 -p SRM -e 116 -c 1 -i 6 -a 1 -x {0.1 4194304.0 -1 ------- SRM_SESS}
+ -t 2.82003 -s 1 -d 2 -p SRM -e 116 -c 1 -i 6 -a 1 -x {0.1 4194304.0 -1 ------- SRM_SESS}
- -t 2.82003 -s 1 -d 2 -p SRM -e 116 -c 1 -i 6 -a 1 -x {0.1 4194304.0 -1 ------- SRM_SESS}
h -t 2.82003 -s 1 -d 2 -p SRM -e 116 -c 1 -i 6 -a 1 -x {0.1 4194304.0 -1 ------- SRM_SESS}
r -t 2.83065 -s 1 -d 2 -p SRM -e 116 -c 1 -i 6 -a 1 -x {0.1 4194304.0 -1 ------- SRM_SESS}
+ -t 2.83065 -s 2 -d 3 -p SRM -e 116 -c 1 -i 6 -a 1 -x {0.1 4194304.0 -1 ------- SRM_SESS}
- -t 2.83065 -s 2 -d 3 -p SRM -e 116 -c 1 -i 6 -a 1 -x {0.1 4194304.0 -1 ------- SRM_SESS}
h -t 2.83065 -s 2 -d 3 -p SRM -e 116 -c 1 -i 6 -a 1 -x {0.1 4194304.0 -1 ------- SRM_SESS}
r -t 2.84127 -s 2 -d 3 -p SRM -e 116 -c 1 -i 6 -a 1 -x {0.1 4194304.0 -1 ------- SRM_SESS}
+ -t 2.84127 -s 3 -d 4 -p SRM -e 116 -c 1 -i 6 -a 1 -x {0.1 4194304.0 -1 ------- SRM_SESS}
- -t 2.84127 -s 3 -d 4 -p SRM -e 116 -c 1 -i 6 -a 1 -x {0.1 4194304.0 -1 ------- SRM_SESS}
h -t 2.84127 -s 3 -d 4 -p SRM -e 116 -c 1 -i 6 -a 1 -x {0.1 4194304.0 -1 ------- SRM_SESS}
+ -t 2.84127 -s 3 -d 5 -p SRM -e 116 -c 1 -i 6 -a 1 -x {0.1 4194304.0 -1 ------- SRM_SESS}
- -t 2.84127 -s 3 -d 5 -p SRM -e 116 -c 1 -i 6 -a 1 -x {0.1 4194304.0 -1 ------- SRM_SESS}
h -t 2.84127 -s 3 -d 5 -p SRM -e 116 -c 1 -i 6 -a 1 -x {0.1 4194304.0 -1 ------- SRM_SESS}
r -t 2.85189 -s 3 -d 4 -p SRM -e 116 -c 1 -i 6 -a 1 -x {0.1 4194304.0 -1 ------- SRM_SESS}
r -t 2.85189 -s 3 -d 5 -p SRM -e 116 -c 1 -i 6 -a 1 -x {0.1 4194304.0 -1 ------- SRM_SESS}
+ -t 2.96208 -s 1 -d 0 -p SRM -e 116 -c 2 -i 7 -a 2 -x {1.1 4194304.0 -1 ------- SRM_SESS}
- -t 2.96208 -s 1 -d 0 -p SRM -e 116 -c 2 -i 7 -a 2 -x {1.1 4194304.0 -1 ------- SRM_SESS}
h -t 2.96208 -s 1 -d 0 -p SRM -e 116 -c 2 -i 7 -a 2 -x {1.1 4194304.0 -1 ------- SRM_SESS}
+ -t 2.96208 -s 1 -d 2 -p SRM -e 116 -c 2 -i 7 -a 2 -x {1.1 4194304.0 -1 ------- SRM_SESS}
- -t 2.96208 -s 1 -d 2 -p SRM -e 116 -c 2 -i 7 -a 2 -x {1.1 4194304.0 -1 ------- SRM_SESS}
h -t 2.96208 -s 1 -d 2 -p SRM -e 116 -c 2 -i 7 -a 2 -x {1.1 4194304.0 -1 ------- SRM_SESS}
r -t 2.9727 -s 1 -d 0 -p SRM -e 116 -c 2 -i 7 -a 2 -x {1.1 4194304.0 -1 ------- SRM_SESS}
r -t 2.9727 -s 1 -d 2 -p SRM -e 116 -c 2 -i 7 -a 2 -x {1.1 4194304.0 -1 ------- SRM_SESS}
+ -t 2.9727 -s 2 -d 3 -p SRM -e 116 -c 2 -i 7 -a 2 -x {1.1 4194304.0 -1 ------- SRM_SESS}
- -t 2.9727 -s 2 -d 3 -p SRM -e 116 -c 2 -i 7 -a 2 -x {1.1 4194304.0 -1 ------- SRM_SESS}
h -t 2.9727 -s 2 -d 3 -p SRM -e 116 -c 2 -i 7 -a 2 -x {1.1 4194304.0 -1 ------- SRM_SESS}
+ -t 2.97965 -s 5 -d 3 -p SRM -e 116 -c 6 -i 8 -a 6 -x {5.1 4194304.0 -1 ------- SRM_SESS}
- -t 2.97965 -s 5 -d 3 -p SRM -e 116 -c 6 -i 8 -a 6 -x {5.1 4194304.0 -1 ------- SRM_SESS}
h -t 2.97965 -s 5 -d 3 -p SRM -e 116 -c 6 -i 8 -a 6 -x {5.1 4194304.0 -1 ------- SRM_SESS}
+ -t 2.98325 -s 4 -d 3 -p SRM -e 116 -c 5 -i 9 -a 5 -x {4.1 4194304.0 -1 ------- SRM_SESS}
- -t 2.98325 -s 4 -d 3 -p SRM -e 116 -c 5 -i 9 -a 5 -x {4.1 4194304.0 -1 ------- SRM_SESS}
h -t 2.98325 -s 4 -d 3 -p SRM -e 116 -c 5 -i 9 -a 5 -x {4.1 4194304.0 -1 ------- SRM_SESS}
r -t 2.98332 -s 2 -d 3 -p SRM -e 116 -c 2 -i 7 -a 2 -x {1.1 4194304.0 -1 ------- SRM_SESS}
+ -t 2.98332 -s 3 -d 4 -p SRM -e 116 -c 2 -i 7 -a 2 -x {1.1 4194304.0 -1 ------- SRM_SESS}
- -t 2.98332 -s 3 -d 4 -p SRM -e 116 -c 2 -i 7 -a 2 -x {1.1 4194304.0 -1 ------- SRM_SESS}
h -t 2.98332 -s 3 -d 4 -p SRM -e 116 -c 2 -i 7 -a 2 -x {1.1 4194304.0 -1 ------- SRM_SESS}
+ -t 2.98332 -s 3 -d 5 -p SRM -e 116 -c 2 -i 7 -a 2 -x {1.1 4194304.0 -1 ------- SRM_SESS}
- -t 2.98332 -s 3 -d 5 -p SRM -e 116 -c 2 -i 7 -a 2 -x {1.1 4194304.0 -1 ------- SRM_SESS}
h -t 2.98332 -s 3 -d 5 -p SRM -e 116 -c 2 -i 7 -a 2 -x {1.1 4194304.0 -1 ------- SRM_SESS}
r -t 2.99027 -s 5 -d 3 -p SRM -e 116 -c 6 -i 8 -a 6 -x {5.1 4194304.0 -1 ------- SRM_SESS}
+ -t 2.99027 -s 3 -d 2 -p SRM -e 116 -c 6 -i 8 -a 6 -x {5.1 4194304.0 -1 ------- SRM_SESS}
- -t 2.99027 -s 3 -d 2 -p SRM -e 116 -c 6 -i 8 -a 6 -x {5.1 4194304.0 -1 ------- SRM_SESS}
h -t 2.99027 -s 3 -d 2 -p SRM -e 116 -c 6 -i 8 -a 6 -x {5.1 4194304.0 -1 ------- SRM_SESS}
+ -t 2.99027 -s 3 -d 4 -p SRM -e 116 -c 6 -i 8 -a 6 -x {5.1 4194304.0 -1 ------- SRM_SESS}
- -t 2.99027 -s 3 -d 4 -p SRM -e 116 -c 6 -i 8 -a 6 -x {5.1 4194304.0 -1 ------- SRM_SESS}
h -t 2.99027 -s 3 -d 4 -p SRM -e 116 -c 6 -i 8 -a 6 -x {5.1 4194304.0 -1 ------- SRM_SESS}
r -t 2.99387 -s 4 -d 3 -p SRM -e 116 -c 5 -i 9 -a 5 -x {4.1 4194304.0 -1 ------- SRM_SESS}
+ -t 2.99387 -s 3 -d 2 -p SRM -e 116 -c 5 -i 9 -a 5 -x {4.1 4194304.0 -1 ------- SRM_SESS}
- -t 2.99387 -s 3 -d 2 -p SRM -e 116 -c 5 -i 9 -a 5 -x {4.1 4194304.0 -1 ------- SRM_SESS}
h -t 2.99387 -s 3 -d 2 -p SRM -e 116 -c 5 -i 9 -a 5 -x {4.1 4194304.0 -1 ------- SRM_SESS}
+ -t 2.99387 -s 3 -d 5 -p SRM -e 116 -c 5 -i 9 -a 5 -x {4.1 4194304.0 -1 ------- SRM_SESS}
- -t 2.99387 -s 3 -d 5 -p SRM -e 116 -c 5 -i 9 -a 5 -x {4.1 4194304.0 -1 ------- SRM_SESS}
h -t 2.99387 -s 3 -d 5 -p SRM -e 116 -c 5 -i 9 -a 5 -x {4.1 4194304.0 -1 ------- SRM_SESS}
r -t 2.99394 -s 3 -d 4 -p SRM -e 116 -c 2 -i 7 -a 2 -x {1.1 4194304.0 -1 ------- SRM_SESS}
r -t 2.99394 -s 3 -d 5 -p SRM -e 116 -c 2 -i 7 -a 2 -x {1.1 4194304.0 -1 ------- SRM_SESS}
r -t 3.00089 -s 3 -d 2 -p SRM -e 116 -c 6 -i 8 -a 6 -x {5.1 4194304.0 -1 ------- SRM_SESS}
+ -t 3.00089 -s 2 -d 1 -p SRM -e 116 -c 6 -i 8 -a 6 -x {5.1 4194304.0 -1 ------- SRM_SESS}
- -t 3.00089 -s 2 -d 1 -p SRM -e 116 -c 6 -i 8 -a 6 -x {5.1 4194304.0 -1 ------- SRM_SESS}
h -t 3.00089 -s 2 -d 1 -p SRM -e 116 -c 6 -i 8 -a 6 -x {5.1 4194304.0 -1 ------- SRM_SESS}
r -t 3.00089 -s 3 -d 4 -p SRM -e 116 -c 6 -i 8 -a 6 -x {5.1 4194304.0 -1 ------- SRM_SESS}
r -t 3.00449 -s 3 -d 2 -p SRM -e 116 -c 5 -i 9 -a 5 -x {4.1 4194304.0 -1 ------- SRM_SESS}
+ -t 3.00449 -s 2 -d 1 -p SRM -e 116 -c 5 -i 9 -a 5 -x {4.1 4194304.0 -1 ------- SRM_SESS}
- -t 3.00449 -s 2 -d 1 -p SRM -e 116 -c 5 -i 9 -a 5 -x {4.1 4194304.0 -1 ------- SRM_SESS}
h -t 3.00449 -s 2 -d 1 -p SRM -e 116 -c 5 -i 9 -a 5 -x {4.1 4194304.0 -1 ------- SRM_SESS}
r -t 3.00449 -s 3 -d 5 -p SRM -e 116 -c 5 -i 9 -a 5 -x {4.1 4194304.0 -1 ------- SRM_SESS}
r -t 3.01151 -s 2 -d 1 -p SRM -e 116 -c 6 -i 8 -a 6 -x {5.1 4194304.0 -1 ------- SRM_SESS}
+ -t 3.01151 -s 1 -d 0 -p SRM -e 116 -c 6 -i 8 -a 6 -x {5.1 4194304.0 -1 ------- SRM_SESS}
- -t 3.01151 -s 1 -d 0 -p SRM -e 116 -c 6 -i 8 -a 6 -x {5.1 4194304.0 -1 ------- SRM_SESS}
h -t 3.01151 -s 1 -d 0 -p SRM -e 116 -c 6 -i 8 -a 6 -x {5.1 4194304.0 -1 ------- SRM_SESS}
r -t 3.01511 -s 2 -d 1 -p SRM -e 116 -c 5 -i 9 -a 5 -x {4.1 4194304.0 -1 ------- SRM_SESS}
+ -t 3.01511 -s 1 -d 0 -p SRM -e 116 -c 5 -i 9 -a 5 -x {4.1 4194304.0 -1 ------- SRM_SESS}
- -t 3.01511 -s 1 -d 0 -p SRM -e 116 -c 5 -i 9 -a 5 -x {4.1 4194304.0 -1 ------- SRM_SESS}
h -t 3.01511 -s 1 -d 0 -p SRM -e 116 -c 5 -i 9 -a 5 -x {4.1 4194304.0 -1 ------- SRM_SESS}
r -t 3.02213 -s 1 -d 0 -p SRM -e 116 -c 6 -i 8 -a 6 -x {5.1 4194304.0 -1 ------- SRM_SESS}
r -t 3.02573 -s 1 -d 0 -p SRM -e 116 -c 5 -i 9 -a 5 -x {4.1 4194304.0 -1 ------- SRM_SESS}
+ -t 3.055 -s 2 -d 1 -p SRM -e 116 -c 3 -i 10 -a 3 -x {2.1 4194304.0 -1 ------- SRM_SESS}
- -t 3.055 -s 2 -d 1 -p SRM -e 116 -c 3 -i 10 -a 3 -x {2.1 4194304.0 -1 ------- SRM_SESS}
h -t 3.055 -s 2 -d 1 -p SRM -e 116 -c 3 -i 10 -a 3 -x {2.1 4194304.0 -1 ------- SRM_SESS}
+ -t 3.055 -s 2 -d 3 -p SRM -e 116 -c 3 -i 10 -a 3 -x {2.1 4194304.0 -1 ------- SRM_SESS}
- -t 3.055 -s 2 -d 3 -p SRM -e 116 -c 3 -i 10 -a 3 -x {2.1 4194304.0 -1 ------- SRM_SESS}
h -t 3.055 -s 2 -d 3 -p SRM -e 116 -c 3 -i 10 -a 3 -x {2.1 4194304.0 -1 ------- SRM_SESS}
r -t 3.06562 -s 2 -d 1 -p SRM -e 116 -c 3 -i 10 -a 3 -x {2.1 4194304.0 -1 ------- SRM_SESS}
+ -t 3.06562 -s 1 -d 0 -p SRM -e 116 -c 3 -i 10 -a 3 -x {2.1 4194304.0 -1 ------- SRM_SESS}
- -t 3.06562 -s 1 -d 0 -p SRM -e 116 -c 3 -i 10 -a 3 -x {2.1 4194304.0 -1 ------- SRM_SESS}
h -t 3.06562 -s 1 -d 0 -p SRM -e 116 -c 3 -i 10 -a 3 -x {2.1 4194304.0 -1 ------- SRM_SESS}
r -t 3.06562 -s 2 -d 3 -p SRM -e 116 -c 3 -i 10 -a 3 -x {2.1 4194304.0 -1 ------- SRM_SESS}
+ -t 3.06562 -s 3 -d 4 -p SRM -e 116 -c 3 -i 10 -a 3 -x {2.1 4194304.0 -1 ------- SRM_SESS}
- -t 3.06562 -s 3 -d 4 -p SRM -e 116 -c 3 -i 10 -a 3 -x {2.1 4194304.0 -1 ------- SRM_SESS}
h -t 3.06562 -s 3 -d 4 -p SRM -e 116 -c 3 -i 10 -a 3 -x {2.1 4194304.0 -1 ------- SRM_SESS}
+ -t 3.06562 -s 3 -d 5 -p SRM -e 116 -c 3 -i 10 -a 3 -x {2.1 4194304.0 -1 ------- SRM_SESS}
- -t 3.06562 -s 3 -d 5 -p SRM -e 116 -c 3 -i 10 -a 3 -x {2.1 4194304.0 -1 ------- SRM_SESS}
h -t 3.06562 -s 3 -d 5 -p SRM -e 116 -c 3 -i 10 -a 3 -x {2.1 4194304.0 -1 ------- SRM_SESS}
r -t 3.07624 -s 1 -d 0 -p SRM -e 116 -c 3 -i 10 -a 3 -x {2.1 4194304.0 -1 ------- SRM_SESS}
r -t 3.07624 -s 3 -d 4 -p SRM -e 116 -c 3 -i 10 -a 3 -x {2.1 4194304.0 -1 ------- SRM_SESS}
r -t 3.07624 -s 3 -d 5 -p SRM -e 116 -c 3 -i 10 -a 3 -x {2.1 4194304.0 -1 ------- SRM_SESS}
+ -t 3.07867 -s 3 -d 2 -p SRM -e 116 -c 4 -i 11 -a 4 -x {3.1 4194304.0 -1 ------- SRM_SESS}
- -t 3.07867 -s 3 -d 2 -p SRM -e 116 -c 4 -i 11 -a 4 -x {3.1 4194304.0 -1 ------- SRM_SESS}
h -t 3.07867 -s 3 -d 2 -p SRM -e 116 -c 4 -i 11 -a 4 -x {3.1 4194304.0 -1 ------- SRM_SESS}
+ -t 3.07867 -s 3 -d 4 -p SRM -e 116 -c 4 -i 11 -a 4 -x {3.1 4194304.0 -1 ------- SRM_SESS}
- -t 3.07867 -s 3 -d 4 -p SRM -e 116 -c 4 -i 11 -a 4 -x {3.1 4194304.0 -1 ------- SRM_SESS}
h -t 3.07867 -s 3 -d 4 -p SRM -e 116 -c 4 -i 11 -a 4 -x {3.1 4194304.0 -1 ------- SRM_SESS}
+ -t 3.07867 -s 3 -d 5 -p SRM -e 116 -c 4 -i 11 -a 4 -x {3.1 4194304.0 -1 ------- SRM_SESS}
- -t 3.07867 -s 3 -d 5 -p SRM -e 116 -c 4 -i 11 -a 4 -x {3.1 4194304.0 -1 ------- SRM_SESS}
h -t 3.07867 -s 3 -d 5 -p SRM -e 116 -c 4 -i 11 -a 4 -x {3.1 4194304.0 -1 ------- SRM_SESS}
r -t 3.08929 -s 3 -d 2 -p SRM -e 116 -c 4 -i 11 -a 4 -x {3.1 4194304.0 -1 ------- SRM_SESS}
+ -t 3.08929 -s 2 -d 1 -p SRM -e 116 -c 4 -i 11 -a 4 -x {3.1 4194304.0 -1 ------- SRM_SESS}
- -t 3.08929 -s 2 -d 1 -p SRM -e 116 -c 4 -i 11 -a 4 -x {3.1 4194304.0 -1 ------- SRM_SESS}
h -t 3.08929 -s 2 -d 1 -p SRM -e 116 -c 4 -i 11 -a 4 -x {3.1 4194304.0 -1 ------- SRM_SESS}
r -t 3.08929 -s 3 -d 4 -p SRM -e 116 -c 4 -i 11 -a 4 -x {3.1 4194304.0 -1 ------- SRM_SESS}
r -t 3.08929 -s 3 -d 5 -p SRM -e 116 -c 4 -i 11 -a 4 -x {3.1 4194304.0 -1 ------- SRM_SESS}
r -t 3.09991 -s 2 -d 1 -p SRM -e 116 -c 4 -i 11 -a 4 -x {3.1 4194304.0 -1 ------- SRM_SESS}
+ -t 3.09991 -s 1 -d 0 -p SRM -e 116 -c 4 -i 11 -a 4 -x {3.1 4194304.0 -1 ------- SRM_SESS}
- -t 3.09991 -s 1 -d 0 -p SRM -e 116 -c 4 -i 11 -a 4 -x {3.1 4194304.0 -1 ------- SRM_SESS}
h -t 3.09991 -s 1 -d 0 -p SRM -e 116 -c 4 -i 11 -a 4 -x {3.1 4194304.0 -1 ------- SRM_SESS}
r -t 3.11052 -s 1 -d 0 -p SRM -e 116 -c 4 -i 11 -a 4 -x {3.1 4194304.0 -1 ------- SRM_SESS}
+ -t 3.5 -s 0 -d 1 -p cbr -e 800 -c 0 -i 12 -a 0 -x {0.1 4194304.0 0 ------- SRM_DATA}
- -t 3.5 -s 0 -d 1 -p cbr -e 800 -c 0 -i 12 -a 0 -x {0.1 4194304.0 0 ------- SRM_DATA}
h -t 3.5 -s 0 -d 1 -p cbr -e 800 -c 0 -i 12 -a 0 -x {0.1 4194304.0 -1 ------- SRM_DATA}
n -t 3.5 -s 0 -S COLOR -c red -o black
v -t 3.5 sim_annotation 3.5 1 node 0 changed color
r -t 3.51427 -s 0 -d 1 -p cbr -e 800 -c 0 -i 12 -a 0 -x {0.1 4194304.0 0 ------- SRM_DATA}
+ -t 3.51427 -s 1 -d 2 -p cbr -e 800 -c 0 -i 12 -a 0 -x {0.1 4194304.0 0 ------- SRM_DATA}
- -t 3.51427 -s 1 -d 2 -p cbr -e 800 -c 0 -i 12 -a 0 -x {0.1 4194304.0 0 ------- SRM_DATA}
h -t 3.51427 -s 1 -d 2 -p cbr -e 800 -c 0 -i 12 -a 0 -x {0.1 4194304.0 -1 ------- SRM_DATA}
+ -t 3.52 -s 0 -d 1 -p cbr -e 800 -c 0 -i 13 -a 0 -x {0.1 4194304.0 1 ------- SRM_DATA}
- -t 3.52 -s 0 -d 1 -p cbr -e 800 -c 0 -i 13 -a 0 -x {0.1 4194304.0 1 ------- SRM_DATA}
h -t 3.52 -s 0 -d 1 -p cbr -e 800 -c 0 -i 13 -a 0 -x {0.1 4194304.0 -1 ------- SRM_DATA}
r -t 3.52853 -s 1 -d 2 -p cbr -e 800 -c 0 -i 12 -a 0 -x {0.1 4194304.0 0 ------- SRM_DATA}
+ -t 3.52853 -s 2 -d 3 -p cbr -e 800 -c 0 -i 12 -a 0 -x {0.1 4194304.0 0 ------- SRM_DATA}
- -t 3.52853 -s 2 -d 3 -p cbr -e 800 -c 0 -i 12 -a 0 -x {0.1 4194304.0 0 ------- SRM_DATA}
h -t 3.52853 -s 2 -d 3 -p cbr -e 800 -c 0 -i 12 -a 0 -x {0.1 4194304.0 -1 ------- SRM_DATA}
r -t 3.53427 -s 0 -d 1 -p cbr -e 800 -c 0 -i 13 -a 0 -x {0.1 4194304.0 1 ------- SRM_DATA}
+ -t 3.53427 -s 1 -d 2 -p cbr -e 800 -c 0 -i 13 -a 0 -x {0.1 4194304.0 1 ------- SRM_DATA}
- -t 3.53427 -s 1 -d 2 -p cbr -e 800 -c 0 -i 13 -a 0 -x {0.1 4194304.0 1 ------- SRM_DATA}
h -t 3.53427 -s 1 -d 2 -p cbr -e 800 -c 0 -i 13 -a 0 -x {0.1 4194304.0 -1 ------- SRM_DATA}
+ -t 3.54 -s 0 -d 1 -p cbr -e 800 -c 0 -i 14 -a 0 -x {0.1 4194304.0 2 ------- SRM_DATA}
- -t 3.54 -s 0 -d 1 -p cbr -e 800 -c 0 -i 14 -a 0 -x {0.1 4194304.0 2 ------- SRM_DATA}
h -t 3.54 -s 0 -d 1 -p cbr -e 800 -c 0 -i 14 -a 0 -x {0.1 4194304.0 -1 ------- SRM_DATA}
r -t 3.5428 -s 2 -d 3 -p cbr -e 800 -c 0 -i 12 -a 0 -x {0.1 4194304.0 0 ------- SRM_DATA}
+ -t 3.5428 -s 3 -d 4 -p cbr -e 800 -c 0 -i 12 -a 0 -x {0.1 4194304.0 0 ------- SRM_DATA}
- -t 3.5428 -s 3 -d 4 -p cbr -e 800 -c 0 -i 12 -a 0 -x {0.1 4194304.0 0 ------- SRM_DATA}
h -t 3.5428 -s 3 -d 4 -p cbr -e 800 -c 0 -i 12 -a 0 -x {0.1 4194304.0 -1 ------- SRM_DATA}
+ -t 3.5428 -s 3 -d 5 -p cbr -e 800 -c 0 -i 12 -a 0 -x {0.1 4194304.0 0 ------- SRM_DATA}
- -t 3.5428 -s 3 -d 5 -p cbr -e 800 -c 0 -i 12 -a 0 -x {0.1 4194304.0 0 ------- SRM_DATA}
h -t 3.5428 -s 3 -d 5 -p cbr -e 800 -c 0 -i 12 -a 0 -x {0.1 4194304.0 -1 ------- SRM_DATA}
r -t 3.54853 -s 1 -d 2 -p cbr -e 800 -c 0 -i 13 -a 0 -x {0.1 4194304.0 1 ------- SRM_DATA}
+ -t 3.54853 -s 2 -d 3 -p cbr -e 800 -c 0 -i 13 -a 0 -x {0.1 4194304.0 1 ------- SRM_DATA}
- -t 3.54853 -s 2 -d 3 -p cbr -e 800 -c 0 -i 13 -a 0 -x {0.1 4194304.0 1 ------- SRM_DATA}
h -t 3.54853 -s 2 -d 3 -p cbr -e 800 -c 0 -i 13 -a 0 -x {0.1 4194304.0 -1 ------- SRM_DATA}
r -t 3.55427 -s 0 -d 1 -p cbr -e 800 -c 0 -i 14 -a 0 -x {0.1 4194304.0 2 ------- SRM_DATA}
+ -t 3.55427 -s 1 -d 2 -p cbr -e 800 -c 0 -i 14 -a 0 -x {0.1 4194304.0 2 ------- SRM_DATA}
- -t 3.55427 -s 1 -d 2 -p cbr -e 800 -c 0 -i 14 -a 0 -x {0.1 4194304.0 2 ------- SRM_DATA}
h -t 3.55427 -s 1 -d 2 -p cbr -e 800 -c 0 -i 14 -a 0 -x {0.1 4194304.0 -1 ------- SRM_DATA}
r -t 3.55707 -s 3 -d 4 -p cbr -e 800 -c 0 -i 12 -a 0 -x {0.1 4194304.0 0 ------- SRM_DATA}
r -t 3.55707 -s 3 -d 5 -p cbr -e 800 -c 0 -i 12 -a 0 -x {0.1 4194304.0 0 ------- SRM_DATA}
+ -t 3.56 -s 0 -d 1 -p cbr -e 800 -c 0 -i 15 -a 0 -x {0.1 4194304.0 3 ------- SRM_DATA}
- -t 3.56 -s 0 -d 1 -p cbr -e 800 -c 0 -i 15 -a 0 -x {0.1 4194304.0 3 ------- SRM_DATA}
h -t 3.56 -s 0 -d 1 -p cbr -e 800 -c 0 -i 15 -a 0 -x {0.1 4194304.0 -1 ------- SRM_DATA}
r -t 3.5628 -s 2 -d 3 -p cbr -e 800 -c 0 -i 13 -a 0 -x {0.1 4194304.0 1 ------- SRM_DATA}
+ -t 3.5628 -s 3 -d 4 -p cbr -e 800 -c 0 -i 13 -a 0 -x {0.1 4194304.0 1 ------- SRM_DATA}
- -t 3.5628 -s 3 -d 4 -p cbr -e 800 -c 0 -i 13 -a 0 -x {0.1 4194304.0 1 ------- SRM_DATA}
h -t 3.5628 -s 3 -d 4 -p cbr -e 800 -c 0 -i 13 -a 0 -x {0.1 4194304.0 -1 ------- SRM_DATA}
+ -t 3.5628 -s 3 -d 5 -p cbr -e 800 -c 0 -i 13 -a 0 -x {0.1 4194304.0 1 ------- SRM_DATA}
- -t 3.5628 -s 3 -d 5 -p cbr -e 800 -c 0 -i 13 -a 0 -x {0.1 4194304.0 1 ------- SRM_DATA}
h -t 3.5628 -s 3 -d 5 -p cbr -e 800 -c 0 -i 13 -a 0 -x {0.1 4194304.0 -1 ------- SRM_DATA}
r -t 3.56853 -s 1 -d 2 -p cbr -e 800 -c 0 -i 14 -a 0 -x {0.1 4194304.0 2 ------- SRM_DATA}
+ -t 3.56853 -s 2 -d 3 -p cbr -e 800 -c 0 -i 14 -a 0 -x {0.1 4194304.0 2 ------- SRM_DATA}
- -t 3.56853 -s 2 -d 3 -p cbr -e 800 -c 0 -i 14 -a 0 -x {0.1 4194304.0 2 ------- SRM_DATA}
h -t 3.56853 -s 2 -d 3 -p cbr -e 800 -c 0 -i 14 -a 0 -x {0.1 4194304.0 -1 ------- SRM_DATA}
r -t 3.57427 -s 0 -d 1 -p cbr -e 800 -c 0 -i 15 -a 0 -x {0.1 4194304.0 3 ------- SRM_DATA}
+ -t 3.57427 -s 1 -d 2 -p cbr -e 800 -c 0 -i 15 -a 0 -x {0.1 4194304.0 3 ------- SRM_DATA}
- -t 3.57427 -s 1 -d 2 -p cbr -e 800 -c 0 -i 15 -a 0 -x {0.1 4194304.0 3 ------- SRM_DATA}
h -t 3.57427 -s 1 -d 2 -p cbr -e 800 -c 0 -i 15 -a 0 -x {0.1 4194304.0 -1 ------- SRM_DATA}
r -t 3.57707 -s 3 -d 4 -p cbr -e 800 -c 0 -i 13 -a 0 -x {0.1 4194304.0 1 ------- SRM_DATA}
r -t 3.57707 -s 3 -d 5 -p cbr -e 800 -c 0 -i 13 -a 0 -x {0.1 4194304.0 1 ------- SRM_DATA}
+ -t 3.58 -s 0 -d 1 -p cbr -e 800 -c 0 -i 16 -a 0 -x {0.1 4194304.0 4 ------- SRM_DATA}
- -t 3.58 -s 0 -d 1 -p cbr -e 800 -c 0 -i 16 -a 0 -x {0.1 4194304.0 4 ------- SRM_DATA}
h -t 3.58 -s 0 -d 1 -p cbr -e 800 -c 0 -i 16 -a 0 -x {0.1 4194304.0 -1 ------- SRM_DATA}
r -t 3.5828 -s 2 -d 3 -p cbr -e 800 -c 0 -i 14 -a 0 -x {0.1 4194304.0 2 ------- SRM_DATA}
+ -t 3.5828 -s 3 -d 4 -p cbr -e 800 -c 0 -i 14 -a 0 -x {0.1 4194304.0 2 ------- SRM_DATA}
- -t 3.5828 -s 3 -d 4 -p cbr -e 800 -c 0 -i 14 -a 0 -x {0.1 4194304.0 2 ------- SRM_DATA}
h -t 3.5828 -s 3 -d 4 -p cbr -e 800 -c 0 -i 14 -a 0 -x {0.1 4194304.0 -1 ------- SRM_DATA}