# TESTNAME: Liveness
# TOPOLOGY: cache4d
# avg-comp-page-age: 40000
# avg-page-age: 20
# avg-page-size: 1024
# avg-req-interval: 6
# client-req-size: 43
# comp-page-size: 51200
# duration: 80
# enable-log: 1
# hb-interval: 4
# max-page-age: 70
# max-page-size: 50000
# max-req-interval: 60
# min-page-age: 50
# min-page-size: 100
# min-req-interval: 50
# nam-trace-all: 1
# ns-random-seed: 188312339
# num-2nd-cache: 5
# num-comp-pages: 1
# page-age-dist: Poisson
# prot: Liveness
# req-dist: Poisson
# scheduler-type: Calendar
# single-page: 1
# ttl: 0.1
# upd-interval: 5
V -t * -v 1.0a5 -a 0
A -t * -n 1 -p 0 -o 255 -c 30 -a 1
A -t * -h 1 -m 4194303 -s 8
c -t * -i 40 -n red
c -t * -i 41 -n orange
n -t * -a 0 -s 0 -S UP -v hexagon -c black
n -t * -a 1 -s 1 -S UP -v circle -c black
n -t * -a 2 -s 2 -S UP -v circle -c black
n -t * -a 3 -s 3 -S UP -v circle -c black
n -t * -a 4 -s 4 -S UP -v circle -c black
n -t * -a 5 -s 5 -S UP -v circle -c black
n -t * -a 6 -s 6 -S UP -v circle -c black
n -t * -a 7 -s 7 -S UP -v circle -c black
n -t * -a 8 -s 8 -S UP -v square -c black
n -t * -a 9 -s 9 -S UP -v square -c black
n -t * -a 10 -s 10 -S UP -v square -c black
n -t * -a 11 -s 11 -S UP -v square -c black
n -t * -a 12 -s 12 -S UP -v circle -c black
l -t * -s 1 -d 12 -S UP -r 100000000 -D 0.001 -o down
l -t * -s 12 -d 2 -S UP -r 1500000 -D 0.050000000000000003 -o left-down
l -t * -s 12 -d 3 -S UP -r 1500000 -D 0.050000000000000003 -o right-down
l -t * -s 2 -d 4 -S UP -r 1500000 -D 0.01 -o left-down
l -t * -s 2 -d 5 -S UP -r 1500000 -D 0.01 -o right-down
l -t * -s 3 -d 6 -S UP -r 1500000 -D 0.01 -o left-down
l -t * -s 3 -d 7 -S UP -r 1500000 -D 0.01 -o right-down
l -t * -s 4 -d 8 -S UP -r 10000000 -D 0.001 -o down
l -t * -s 5 -d 9 -S UP -r 10000000 -D 0.001 -o down
l -t * -s 6 -d 10 -S UP -r 10000000 -D 0.001 -o down
l -t * -s 7 -d 11 -S UP -r 10000000 -D 0.001 -o down
l -t * -s 0 -d 4 -S UP -r 10000000 -D 0.01 -o right
v -t 0 proc mystart {} { $self auto_ff; $self settime 89; $self settime 10; $self set_rate_ext 2ms 1; $self play 1 }
v -t 0 mystart
n -t 10 -s 4 -S DLABEL -l cache
n -t 10 -s 5 -S DLABEL -l cache
n -t 10 -s 6 -S DLABEL -l cache
n -t 10 -s 7 -S DLABEL -l cache
n -t 10 -s 0 -S DLABEL -l server
n -t 10 -s 8 -S DLABEL -l client
n -t 10 -s 9 -S DLABEL -l client
n -t 10 -s 1 -S DLABEL -l cache
n -t 10 -s 10 -S DLABEL -l client
n -t 10 -s 2 -S DLABEL -l cache
n -t 10 -s 11 -S DLABEL -l client
n -t 10 -s 3 -S DLABEL -l cache
+ -t 10 -s 0 -d 4 -p tcp -e 40 -c 11 -i 0 -a 11 -x {0.2 4.3 0 ------- null}
- -t 10 -s 0 -d 4 -p tcp -e 40 -c 11 -i 0 -a 11 -x {0.2 4.3 0 ------- null}
h -t 10 -s 0 -d 4 -p tcp -e 40 -c 11 -i 0 -a 11 -x {0.2 4.3 -1 ------- null}
r -t 10.01 -s 0 -d 4 -p tcp -e 40 -c 11 -i 0 -a 11 -x {0.2 4.3 0 ------- null}
+ -t 10.01 -s 4 -d 0 -p ack -e 40 -c 11 -i 1 -a 11 -x {4.3 0.2 0 ------- null}
- -t 10.01 -s 4 -d 0 -p ack -e 40 -c 11 -i 1 -a 11 -x {4.3 0.2 0 ------- null}
h -t 10.01 -s 4 -d 0 -p ack -e 40 -c 11 -i 1 -a 11 -x {4.3 0.2 -1 ------- null}
r -t 10.0201 -s 4 -d 0 -p ack -e 40 -c 11 -i 1 -a 11 -x {4.3 0.2 0 ------- null}
+ -t 10.0201 -s 0 -d 4 -p tcp -e 40 -c 11 -i 2 -a 11 -x {0.2 4.3 1 ------- null}
- -t 10.0201 -s 0 -d 4 -p tcp -e 40 -c 11 -i 2 -a 11 -x {0.2 4.3 1 ------- null}
h -t 10.0201 -s 0 -d 4 -p tcp -e 40 -c 11 -i 2 -a 11 -x {0.2 4.3 -1 ------- null}
+ -t 10.0201 -s 0 -d 4 -p tcp -e 50 -c 11 -i 3 -a 11 -x {0.2 4.3 1 ------- null}
- -t 10.0201 -s 0 -d 4 -p tcp -e 50 -c 11 -i 3 -a 11 -x {0.2 4.3 1 ------- null}
h -t 10.0201 -s 0 -d 4 -p tcp -e 50 -c 11 -i 3 -a 11 -x {0.2 4.3 -1 ------- null}
r -t 10.0301 -s 0 -d 4 -p tcp -e 40 -c 11 -i 2 -a 11 -x {0.2 4.3 1 ------- null}
r -t 10.0301 -s 0 -d 4 -p tcp -e 50 -c 11 -i 3 -a 11 -x {0.2 4.3 1 ------- null}
+ -t 10.0301 -s 4 -d 2 -p tcp -e 40 -c 6 -i 4 -a 6 -x {4.2 2.2 0 ------- null}
- -t 10.0301 -s 4 -d 2 -p tcp -e 40 -c 6 -i 4 -a 6 -x {4.2 2.2 0 ------- null}
h -t 10.0301 -s 4 -d 2 -p tcp -e 40 -c 6 -i 4 -a 6 -x {4.2 2.2 -1 ------- null}
r -t 10.0403 -s 4 -d 2 -p tcp -e 40 -c 6 -i 4 -a 6 -x {4.2 2.2 0 ------- null}
+ -t 10.0403 -s 2 -d 4 -p ack -e 40 -c 6 -i 5 -a 6 -x {2.2 4.2 0 ------- null}
- -t 10.0403 -s 2 -d 4 -p ack -e 40 -c 6 -i 5 -a 6 -x {2.2 4.2 0 ------- null}
h -t 10.0403 -s 2 -d 4 -p ack -e 40 -c 6 -i 5 -a 6 -x {2.2 4.2 -1 ------- null}
r -t 10.0506 -s 2 -d 4 -p ack -e 40 -c 6 -i 5 -a 6 -x {2.2 4.2 0 ------- null}
+ -t 10.0506 -s 4 -d 2 -p tcp -e 40 -c 6 -i 6 -a 6 -x {4.2 2.2 1 ------- null}
- -t 10.0506 -s 4 -d 2 -p tcp -e 40 -c 6 -i 6 -a 6 -x {4.2 2.2 1 ------- null}
h -t 10.0506 -s 4 -d 2 -p tcp -e 40 -c 6 -i 6 -a 6 -x {4.2 2.2 -1 ------- null}
+ -t 10.0506 -s 4 -d 2 -p tcp -e 50 -c 6 -i 7 -a 6 -x {4.2 2.2 1 ------- null}
- -t 10.0508 -s 4 -d 2 -p tcp -e 50 -c 6 -i 7 -a 6 -x {4.2 2.2 1 ------- null}
h -t 10.0508 -s 4 -d 2 -p tcp -e 50 -c 6 -i 7 -a 6 -x {4.2 2.2 -1 ------- null}
r -t 10.0608 -s 4 -d 2 -p tcp -e 40 -c 6 -i 6 -a 6 -x {4.2 2.2 1 ------- null}
r -t 10.061 -s 4 -d 2 -p tcp -e 50 -c 6 -i 7 -a 6 -x {4.2 2.2 1 ------- null}
+ -t 10.061 -s 2 -d 12 -p tcp -e 40 -c 4 -i 8 -a 4 -x {2.1 1.1 0 ------- null}
- -t 10.061 -s 2 -d 12 -p tcp -e 40 -c 4 -i 8 -a 4 -x {2.1 1.1 0 ------- null}
h -t 10.061 -s 2 -d 12 -p tcp -e 40 -c 4 -i 8 -a 4 -x {2.1 1.1 -1 ------- null}
+ -t 10.1 -s 2 -d 4 -p ack -e 40 -c 6 -i 9 -a 6 -x {2.2 4.2 1 ------- null}
- -t 10.1 -s 2 -d 4 -p ack -e 40 -c 6 -i 9 -a 6 -x {2.2 4.2 1 ------- null}
h -t 10.1 -s 2 -d 4 -p ack -e 40 -c 6 -i 9 -a 6 -x {2.2 4.2 -1 ------- null}
+ -t 10.1 -s 4 -d 0 -p ack -e 40 -c 11 -i 10 -a 11 -x {4.3 0.2 1 ------- null}
- -t 10.1 -s 4 -d 0 -p ack -e 40 -c 11 -i 10 -a 11 -x {4.3 0.2 1 ------- null}
h -t 10.1 -s 4 -d 0 -p ack -e 40 -c 11 -i 10 -a 11 -x {4.3 0.2 -1 ------- null}
r -t 10.11 -s 4 -d 0 -p ack -e 40 -c 11 -i 10 -a 11 -x {4.3 0.2 1 ------- null}
r -t 10.1102 -s 2 -d 4 -p ack -e 40 -c 6 -i 9 -a 6 -x {2.2 4.2 1 ------- null}
r -t 10.1113 -s 2 -d 12 -p tcp -e 40 -c 4 -i 8 -a 4 -x {2.1 1.1 0 ------- null}
+ -t 10.1113 -s 12 -d 1 -p tcp -e 40 -c 4 -i 8 -a 4 -x {2.1 1.1 0 ------- null}
- -t 10.1113 -s 12 -d 1 -p tcp -e 40 -c 4 -i 8 -a 4 -x {2.1 1.1 0 ------- null}
h -t 10.1113 -s 12 -d 1 -p tcp -e 40 -c 4 -i 8 -a 4 -x {2.1 1.1 -1 ------- null}
r -t 10.1123 -s 12 -d 1 -p tcp -e 40 -c 4 -i 8 -a 4 -x {2.1 1.1 0 ------- null}
+ -t 10.1123 -s 1 -d 12 -p ack -e 40 -c 4 -i 11 -a 4 -x {1.1 2.1 0 ------- null}
- -t 10.1123 -s 1 -d 12 -p ack -e 40 -c 4 -i 11 -a 4 -x {1.1 2.1 0 ------- null}
h -t 10.1123 -s 1 -d 12 -p ack -e 40 -c 4 -i 11 -a 4 -x {1.1 2.1 -1 ------- null}
r -t 10.1133 -s 1 -d 12 -p ack -e 40 -c 4 -i 11 -a 4 -x {1.1 2.1 0 ------- null}
+ -t 10.1133 -s 12 -d 2 -p ack -e 40 -c 4 -i 11 -a 4 -x {1.1 2.1 0 ------- null}
- -t 10.1133 -s 12 -d 2 -p ack -e 40 -c 4 -i 11 -a 4 -x {1.1 2.1 0 ------- null}
h -t 10.1133 -s 12 -d 2 -p ack -e 40 -c 4 -i 11 -a 4 -x {1.1 2.1 -1 ------- null}
r -t 10.1635 -s 12 -d 2 -p ack -e 40 -c 4 -i 11 -a 4 -x {1.1 2.1 0 ------- null}
+ -t 10.1635 -s 2 -d 12 -p tcp -e 40 -c 4 -i 12 -a 4 -x {2.1 1.1 1 ------- null}
- -t 10.1635 -s 2 -d 12 -p tcp -e 40 -c 4 -i 12 -a 4 -x {2.1 1.1 1 ------- null}
h -t 10.1635 -s 2 -d 12 -p tcp -e 40 -c 4 -i 12 -a 4 -x {2.1 1.1 -1 ------- null}
+ -t 10.1635 -s 2 -d 12 -p tcp -e 50 -c 4 -i 13 -a 4 -x {2.1 1.1 1 ------- null}
- -t 10.1637 -s 2 -d 12 -p tcp -e 50 -c 4 -i 13 -a 4 -x {2.1 1.1 1 ------- null}
h -t 10.1637 -s 2 -d 12 -p tcp -e 50 -c 4 -i 13 -a 4 -x {2.1 1.1 -1 ------- null}
r -t 10.2137 -s 2 -d 12 -p tcp -e 40 -c 4 -i 12 -a 4 -x {2.1 1.1 1 ------- null}
+ -t 10.2137 -s 12 -d 1 -p tcp -e 40 -c 4 -i 12 -a 4 -x {2.1 1.1 1 ------- null}
- -t 10.2137 -s 12 -d 1 -p tcp -e 40 -c 4 -i 12 -a 4 -x {2.1 1.1 1 ------- null}
h -t 10.2137 -s 12 -d 1 -p tcp -e 40 -c 4 -i 12 -a 4 -x {2.1 1.1 -1 ------- null}
r -t 10.214 -s 2 -d 12 -p tcp -e 50 -c 4 -i 13 -a 4 -x {2.1 1.1 1 ------- null}
+ -t 10.214 -s 12 -d 1 -p tcp -e 50 -c 4 -i 13 -a 4 -x {2.1 1.1 1 ------- null}
- -t 10.214 -s 12 -d 1 -p tcp -e 50 -c 4 -i 13 -a 4 -x {2.1 1.1 1 ------- null}
h -t 10.214 -s 12 -d 1 -p tcp -e 50 -c 4 -i 13 -a 4 -x {2.1 1.1 -1 ------- null}
r -t 10.2147 -s 12 -d 1 -p tcp -e 40 -c 4 -i 12 -a 4 -x {2.1 1.1 1 ------- null}
r -t 10.215 -s 12 -d 1 -p tcp -e 50 -c 4 -i 13 -a 4 -x {2.1 1.1 1 ------- null}
+ -t 10.3 -s 1 -d 12 -p ack -e 40 -c 4 -i 14 -a 4 -x {1.1 2.1 1 ------- null}
- -t 10.3 -s 1 -d 12 -p ack -e 40 -c 4 -i 14 -a 4 -x {1.1 2.1 1 ------- null}
h -t 10.3 -s 1 -d 12 -p ack -e 40 -c 4 -i 14 -a 4 -x {1.1 2.1 -1 ------- null}
r -t 10.301 -s 1 -d 12 -p ack -e 40 -c 4 -i 14 -a 4 -x {1.1 2.1 1 ------- null}
+ -t 10.301 -s 12 -d 2 -p ack -e 40 -c 4 -i 14 -a 4 -x {1.1 2.1 1 ------- null}
- -t 10.301 -s 12 -d 2 -p ack -e 40 -c 4 -i 14 -a 4 -x {1.1 2.1 1 ------- null}
h -t 10.301 -s 12 -d 2 -p ack -e 40 -c 4 -i 14 -a 4 -x {1.1 2.1 -1 ------- null}
r -t 10.3512 -s 12 -d 2 -p ack -e 40 -c 4 -i 14 -a 4 -x {1.1 2.1 1 ------- null}
+ -t 14 -s 3 -d 6 -p httpInval -e 4 -c 0 -i 15 -a 0 -x {3.5 4194304.2 -1 ------- null}
- -t 14 -s 3 -d 6 -p httpInval -e 4 -c 0 -i 15 -a 0 -x {3.5 4194304.2 -1 ------- null}
h -t 14 -s 3 -d 6 -p httpInval -e 4 -c 0 -i 15 -a 0 -x {3.5 4194304.2 -1 ------- null}
+ -t 14 -s 3 -d 7 -p httpInval -e 4 -c 0 -i 15 -a 0 -x {3.5 4194304.2 -1 ------- null}
- -t 14 -s 3 -d 7 -p httpInval -e 4 -c 0 -i 15 -a 0 -x {3.5 4194304.2 -1 ------- null}
h -t 14 -s 3 -d 7 -p httpInval -e 4 -c 0 -i 15 -a 0 -x {3.5 4194304.2 -1 ------- null}
+ -t 14 -s 2 -d 12 -p tcp -e 40 -c 40 -i 16 -a 40 -x {2.7 1.5 0 ------- null}
- -t 14 -s 2 -d 12 -p tcp -e 40 -c 40 -i 16 -a 40 -x {2.7 1.5 0 ------- null}
h -t 14 -s 2 -d 12 -p tcp -e 40 -c 40 -i 16 -a 40 -x {2.7 1.5 -1 ------- null}
+ -t 14 -s 2 -d 4 -p httpInval -e 4 -c 0 -i 17 -a 0 -x {2.5 4194304.1 -1 ------- null}
- -t 14 -s 2 -d 4 -p httpInval -e 4 -c 0 -i 17 -a 0 -x {2.5 4194304.1 -1 ------- null}
h -t 14 -s 2 -d 4 -p httpInval -e 4 -c 0 -i 17 -a 0 -x {2.5 4194304.1 -1 ------- null}
+ -t 14 -s 2 -d 5 -p httpInval -e 4 -c 0 -i 17 -a 0 -x {2.5 4194304.1 -1 ------- null}
- -t 14 -s 2 -d 5 -p httpInval -e 4 -c 0 -i 17 -a 0 -x {2.5 4194304.1 -1 ------- null}
h -t 14 -s 2 -d 5 -p httpInval -e 4 -c 0 -i 17 -a 0 -x {2.5 4194304.1 -1 ------- null}
+ -t 14 -s 1 -d 12 -p httpInval -e 4 -c 0 -i 18 -a 0 -x {1.4 4194304.0 -1 ------- null}
- -t 14 -s 1 -d 12 -p httpInval -e 4 -c 0 -i 18 -a 0 -x {1.4 4194304.0 -1 ------- null}
h -t 14 -s 1 -d 12 -p httpInval -e 4 -c 0 -i 18 -a 0 -x {1.4 4194304.0 -1 ------- null}
r -t 14.001 -s 1 -d 12 -p httpInval -e 4 -c 0 -i 18 -a 0 -x {1.4 4194304.0 -1 ------- null}
+ -t 14.001 -s 12 -d 2 -p httpInval -e 4 -c 0 -i 18 -a 0 -x {1.4 4194304.0 -1 ------- null}
- -t 14.001 -s 12 -d 2 -p httpInval -e 4 -c 0 -i 18 -a 0 -x {1.4 4194304.0 -1 ------- null}
h -t 14.001 -s 12 -d 2 -p httpInval -e 4 -c 0 -i 18 -a 0 -x {1.4 4194304.0 -1 ------- null}
+ -t 14.001 -s 12 -d 3 -p httpInval -e 4 -c 0 -i 18 -a 0 -x {1.4 4194304.0 -1 ------- null}
- -t 14.001 -s 12 -d 3 -p httpInval -e 4 -c 0 -i 18 -a 0 -x {1.4 4194304.0 -1 ------- null}
h -t 14.001 -s 12 -d 3 -p httpInval -e 4 -c 0 -i 18 -a 0 -x {1.4 4194304.0 -1 ------- null}
r -t 14.01 -s 3 -d 6 -p httpInval -e 4 -c 0 -i 15 -a 0 -x {3.5 4194304.2 -1 ------- null}
r -t 14.01 -s 3 -d 7 -p httpInval -e 4 -c 0 -i 15 -a 0 -x {3.5 4194304.2 -1 ------- null}
r -t 14.01 -s 2 -d 4 -p httpInval -e 4 -c 0 -i 17 -a 0 -x {2.5 4194304.1 -1 ------- null}
r -t 14.01 -s 2 -d 5 -p httpInval -e 4 -c 0 -i 17 -a 0 -x {2.5 4194304.1 -1 ------- null}
+ -t 14.0301 -s 4 -d 2 -p tcp -e 40 -c 40 -i 19 -a 40 -x {4.5 2.6 0 ------- null}
- -t 14.0301 -s 4 -d 2 -p tcp -e 40 -c 40 -i 19 -a 40 -x {4.5 2.6 0 ------- null}
h -t 14.0301 -s 4 -d 2 -p tcp -e 40 -c 40 -i 19 -a 40 -x {4.5 2.6 -1 ------- null}
r -t 14.0403 -s 4 -d 2 -p tcp -e 40 -c 40 -i 19 -a 40 -x {4.5 2.6 0 ------- null}
+ -t 14.0403 -s 2 -d 4 -p ack -e 40 -c 40 -i 20 -a 40 -x {2.6 4.5 0 ------- null}
- -t 14.0403 -s 2 -d 4 -p ack -e 40 -c 40 -i 20 -a 40 -x {2.6 4.5 0 ------- null}
h -t 14.0403 -s 2 -d 4 -p ack -e 40 -c 40 -i 20 -a 40 -x {2.6 4.5 -1 ------- null}
r -t 14.0502 -s 2 -d 12 -p tcp -e 40 -c 40 -i 16 -a 40 -x {2.7 1.5 0 ------- null}
+ -t 14.0502 -s 12 -d 1 -p tcp -e 40 -c 40 -i 16 -a 40 -x {2.7 1.5 0 ------- null}
- -t 14.0502 -s 12 -d 1 -p tcp -e 40 -c 40 -i 16 -a 40 -x {2.7 1.5 0 ------- null}
h -t 14.0502 -s 12 -d 1 -p tcp -e 40 -c 40 -i 16 -a 40 -x {2.7 1.5 -1 ------- null}
r -t 14.0506 -s 2 -d 4 -p ack -e 40 -c 40 -i 20 -a 40 -x {2.6 4.5 0 ------- null}
+ -t 14.0506 -s 4 -d 2 -p tcp -e 40 -c 40 -i 21 -a 40 -x {4.5 2.6 1 ------- null}
- -t 14.0506 -s 4 -d 2 -p tcp -e 40 -c 40 -i 21 -a 40 -x {4.5 2.6 1 ------- null}
h -t 14.0506 -s 4 -d 2 -p tcp -e 40 -c 40 -i 21 -a 40 -x {4.5 2.6 -1 ------- null}
+ -t 14.0506 -s 4 -d 2 -p tcp -e 40 -c 40 -i 22 -a 40 -x {4.5 2.6 1 ------- null}
- -t 14.0508 -s 4 -d 2 -p tcp -e 40 -c 40 -i 22 -a 40 -x {4.5 2.6 1 ------- null}
h -t 14.0508 -s 4 -d 2 -p tcp -e 40 -c 40 -i 22 -a 40 -x {4.5 2.6 -1 ------- null}
r -t 14.051 -s 12 -d 2 -p httpInval -e 4 -c 0 -i 18 -a 0 -x {1.4 4194304.0 -1 ------- null}
r -t 14.051 -s 12 -d 3 -p httpInval -e 4 -c 0 -i 18 -a 0 -x {1.4 4194304.0 -1 ------- null}
r -t 14.0512 -s 12 -d 1 -p tcp -e 40 -c 40 -i 16 -a 40 -x {2.7 1.5 0 ------- null}
+ -t 14.0512 -s 1 -d 12 -p ack -e 40 -c 40 -i 23 -a 40 -x {1.5 2.7 0 ------- null}
- -t 14.0512 -s 1 -d 12 -p ack -e 40 -c 40 -i 23 -a 40 -x {1.5 2.7 0 ------- null}
h -t 14.0512 -s 1 -d 12 -p ack -e 40 -c 40 -i 23 -a 40 -x {1.5 2.7 -1 ------- null}
r -t 14.0522 -s 1 -d 12 -p ack -e 40 -c 40 -i 23 -a 40 -x {1.5 2.7 0 ------- null}
+ -t 14.0522 -s 12 -d 2 -p ack -e 40 -c 40 -i 23 -a 40 -x {1.5 2.7 0 ------- null}
- -t 14.0522 -s 12 -d 2 -p ack -e 40 -c 40 -i 23 -a 40 -x {1.5 2.7 0 ------- null}
h -t 14.0522 -s 12 -d 2 -p ack -e 40 -c 40 -i 23 -a 40 -x {1.5 2.7 -1 ------- null}
r -t 14.0608 -s 4 -d 2 -p tcp -e 40 -c 40 -i 21 -a 40 -x {4.5 2.6 1 ------- null}
r -t 14.061 -s 4 -d 2 -p tcp -e 40 -c 40 -i 22 -a 40 -x {4.5 2.6 1 ------- null}
r -t 14.1024 -s 12 -d 2 -p ack -e 40 -c 40 -i 23 -a 40 -x {1.5 2.7 0 ------- null}
+ -t 14.1024 -s 2 -d 12 -p tcp -e 40 -c 40 -i 24 -a 40 -x {2.7 1.5 1 ------- null}
- -t 14.1024 -s 2 -d 12 -p tcp -e 40 -c 40 -i 24 -a 40 -x {2.7 1.5 1 ------- null}
h -t 14.1024 -s 2 -d 12 -p tcp -e 40 -c 40 -i 24 -a 40 -x {2.7 1.5 -1 ------- null}
+ -t 14.1024 -s 2 -d 12 -p tcp -e 40 -c 40 -i 25 -a 40 -x {2.7 1.5 1 ------- null}
- -t 14.1026 -s 2 -d 12 -p tcp -e 40 -c 40 -i 25 -a 40 -x {2.7 1.5 1 ------- null}
h -t 14.1026 -s 2 -d 12 -p tcp -e 40 -c 40 -i 25 -a 40 -x {2.7 1.5 -1 ------- null}
r -t 14.1526 -s 2 -d 12 -p tcp -e 40 -c 40 -i 24 -a 40 -x {2.7 1.5 1 ------- null}
+ -t 14.1526 -s 12 -d 1 -p tcp -e 40 -c 40 -i 24 -a 40 -x {2.7 1.5 1 ------- null}
- -t 14.1526 -s 12 -d 1 -p tcp -e 40 -c 40 -i 24 -a 40 -x {2.7 1.5 1 ------- null}
h -t 14.1526 -s 12 -d 1 -p tcp -e 40 -c 40 -i 24 -a 40 -x {2.7 1.5 -1 ------- null}
r -t 14.1529 -s 2 -d 12 -p tcp -e 40 -c 40 -i 25 -a 40 -x {2.7 1.5 1 ------- null}
+ -t 14.1529 -s 12 -d 1 -p tcp -e 40 -c 40 -i 25 -a 40 -x {2.7 1.5 1 ------- null}
- -t 14.1529 -s 12 -d 1 -p tcp -e 40 -c 40 -i 25 -a 40 -x {2.7 1.5 1 ------- null}
h -t 14.1529 -s 12 -d 1 -p tcp -e 40 -c 40 -i 25 -a 40 -x {2.7 1.5 -1 ------- null}
r -t 14.1536 -s 12 -d 1 -p tcp -e 40 -c 40 -i 24 -a 40 -x {2.7 1.5 1 ------- null}
r -t 14.1539 -s 12 -d 1 -p tcp -e 40 -c 40 -i 25 -a 40 -x {2.7 1.5 1 ------- null}
+ -t 17.8244 -s 2 -d 4 -p httpInval -e 4 -c 0 -i 26 -a 0 -x {2.5 4194304.1 -1 ------- null}
- -t 17.8244 -s 2 -d 4 -p httpInval -e 4 -c 0 -i 26 -a 0 -x {2.5 4194304.1 -1 ------- null}
h -t 17.8244 -s 2 -d 4 -p httpInval -e 4 -c 0 -i 26 -a 0 -x {2.5 4194304.1 -1 ------- null}
+ -t 17.8244 -s 2 -d 5 -p httpInval -e 4 -c 0 -i 26 -a 0 -x {2.5 4194304.1 -1 ------- null}
- -t 17.8244 -s 2 -d 5 -p httpInval -e 4 -c 0 -i 26 -a 0 -x {2.5 4194304.1 -1 ------- null}
h -t 17.8244 -s 2 -d 5 -p httpInval -e 4 -c 0 -i 26 -a 0 -x {2.5 4194304.1 -1 ------- null}
r -t 17.8344 -s 2 -d 4 -p httpInval -e 4 -c 0 -i 26 -a 0 -x {2.5 4194304.1 -1 ------- null}
r -t 17.8344 -s 2 -d 5 -p httpInval -e 4 -c 0 -i 26 -a 0 -x {2.5 4194304.1 -1 ------- null}
+ -t 17.8946 -s 1 -d 12 -p httpInval -e 4 -c 0 -i 27 -a 0 -x {1.4 4194304.0 -1 ------- null}
- -t 17.8946 -s 1 -d 12 -p httpInval -e 4 -c 0 -i 27 -a 0 -x {1.4 4194304.0 -1 ------- null}
h -t 17.8946 -s 1 -d 12 -p httpInval -e 4 -c 0 -i 27 -a 0 -x {1.4 4194304.0 -1 ------- null}
r -t 17.8956 -s 1 -d 12 -p httpInval -e 4 -c 0 -i 27 -a 0 -x {1.4 4194304.0 -1 ------- null}
+ -t 17.8956 -s 12 -d 2 -p httpInval -e 4 -c 0 -i 27 -a 0 -x {1.4 4194304.0 -1 ------- null}
- -t 17.8956 -s 12 -d 2 -p httpInval -e 4 -c 0 -i 27 -a 0 -x {1.4 4194304.0 -1 ------- null}
h -t 17.8956 -s 12 -d 2 -p httpInval -e 4 -c 0 -i 27 -a 0 -x {1.4 4194304.0 -1 ------- null}
+ -t 17.8956 -s 12 -d 3 -p httpInval -e 4 -c 0 -i 27 -a 0 -x {1.4 4194304.0 -1 ------- null}
- -t 17.8956 -s 12 -d 3 -p httpInval -e 4 -c 0 -i 27 -a 0 -x {1.4 4194304.0 -1 ------- null}
h -t 17.8956 -s 12 -d 3 -p httpInval -e 4 -c 0 -i 27 -a 0 -x {1.4 4194304.0 -1 ------- null}
r -t 17.9457 -s 12 -d 2 -p httpInval -e 4 -c 0 -i 27 -a 0 -x {1.4 4194304.0 -1 ------- null}
r -t 17.9457 -s 12 -d 3 -p httpInval -e 4 -c 0 -i 27 -a 0 -x {1.4 4194304.0 -1 ------- null}
+ -t 18.1853 -s 0 -d 4 -p tcp -e 42 -c 11 -i 28 -a 11 -x {0.2 4.3 11 ---A--- null}
- -t 18.1853 -s 0 -d 4 -p tcp -e 42 -c 11 -i 28 -a 11 -x {0.2 4.3 11 ---A--- null}
h -t 18.1853 -s 0 -d 4 -p tcp -e 42 -c 11 -i 28 -a 11 -x {0.2 4.3 -1 ---A--- null}
r -t 18.1953 -s 0 -d 4 -p tcp -e 42 -c 11 -i 28 -a 11 -x {0.2 4.3 11 ---A--- null}
+ -t 18.2 -s 4 -d 0 -p ack -e 40 -c 11 -i 29 -a 11 -x {4.3 0.2 1 ------- null}
- -t 18.2 -s 4 -d 0 -p ack -e 40 -c 11 -i 29 -a 11 -x {4.3 0.2 1 ------- null}
h -t 18.2 -s 4 -d 0 -p ack -e 40 -c 11 -i 29 -a 11 -x {4.3 0.2 -1 ------- null}
r -t 18.21 -s 4 -d 0 -p ack -e 40 -c 11 -i 29 -a 11 -x {4.3 0.2 1 ------- null}
+ -t 18.2411 -s 3 -d 6 -p httpInval -e 4 -c 0 -i 30 -a 0 -x {3.5 4194304.2 -1 ------- null}
- -t 18.2411 -s 3 -d 6 -p httpInval -e 4 -c 0 -i 30 -a 0 -x {3.5 4194304.2 -1 ------- null}
h -t 18.2411 -s 3 -d 6 -p httpInval -e 4 -c 0 -i 30 -a 0 -x {3.5 4194304.2 -1 ------- null}
+ -t 18.2411 -s 3 -d 7 -p httpInval -e 4 -c 0 -i 30 -a 0 -x {3.5 4194304.2 -1 ------- null}
- -t 18.2411 -s 3 -d 7 -p httpInval -e 4 -c 0 -i 30 -a 0 -x {3.5 4194304.2 -1 ------- null}
h -t 18.2411 -s 3 -d 7 -p httpInval -e 4 -c 0 -i 30 -a 0 -x {3.5 4194304.2 -1 ------- null}
r -t 18.2512 -s 3 -d 6 -p httpInval -e 4 -c 0 -i 30 -a 0 -x {3.5 4194304.2 -1 ------- null}
r -t 18.2512 -s 3 -d 7 -p httpInval -e 4 -c 0 -i 30 -a 0 -x {3.5 4194304.2 -1 ------- null}
v -t 20 sim_annotation 20 1 Phase 1: populate caches
+ -t 20 -s 8 -d 4 -p tcp -e 40 -c 0 -i 31 -a 0 -x {8.1 4.1 0 ------- null}
- -t 20 -s 8 -d 4 -p tcp -e 40 -c 0 -i 31 -a 0 -x {8.1 4.1 0 ------- null}
h -t 20 -s 8 -d 4 -p tcp -e 40 -c 0 -i 31 -a 0 -x {8.1 4.1 -1 ------- null}
m -t 20 -s 8 -n _o446:0:20 -c purple -h circle
+ -t 20 -s 9 -d 5 -p tcp -e 40 -c 1 -i 32 -a 1 -x {9.1 5.1 0 ------- null}
- -t 20 -s 9 -d 5 -p tcp -e 40 -c 1 -i 32 -a 1 -x {9.1 5.1 0 ------- null}
h -t 20 -s 9 -d 5 -p tcp -e 40 -c 1 -i 32 -a 1 -x {9.1 5.1 -1 ------- null}
m -t 20 -s 9 -n _o446:0:20 -c purple -h circle
+ -t 20 -s 10 -d 6 -p tcp -e 40 -c 2 -i 33 -a 2 -x {10.1 6.1 0 ------- null}
- -t 20 -s 10 -d 6 -p tcp -e 40 -c 2 -i 33 -a 2 -x {10.1 6.1 0 ------- null}
h -t 20 -s 10 -d 6 -p tcp -e 40 -c 2 -i 33 -a 2 -x {10.1 6.1 -1 ------- null}
m -t 20 -s 10 -n _o446:0:20 -c purple -h circle
+ -t 20 -s 11 -d 7 -p tcp -e 40 -c 3 -i 34 -a 3 -x {11.1 7.1 0 ------- null}
- -t 20 -s 11 -d 7 -p tcp -e 40 -c 3 -i 34 -a 3 -x {11.1 7.1 0 ------- null}
h -t 20 -s 11 -d 7 -p tcp -e 40 -c 3 -i 34 -a 3 -x {11.1 7.1 -1 ------- null}
m -t 20 -s 11 -n _o446:0:20 -c purple -h circle
r -t 20.001 -s 8 -d 4 -p tcp -e 40 -c 0 -i 31 -a 0 -x {8.1 4.1 0 ------- null}
+ -t 20.001 -s 4 -d 8 -p ack -e 40 -c 0 -i 35 -a 0 -x {4.1 8.1 0 ------- null}
- -t 20.001 -s 4 -d 8 -p ack -e 40 -c 0 -i 35 -a 0 -x {4.1 8.1 0 ------- null}
h -t 20.001 -s 4 -d 8 -p ack -e 40 -c 0 -i 35 -a 0 -x {4.1 8.1 -1 ------- null}
r -t 20.001 -s 9 -d 5 -p tcp -e 40 -c 1 -i 32 -a 1 -x {9.1 5.1 0 ------- null}
+ -t 20.001 -s 5 -d 9 -p ack -e 40 -c 1 -i 36 -a 1 -x {5.1 9.1 0 ------- null}
- -t 20.001 -s 5 -d 9 -p ack -e 40 -c 1 -i 36 -a 1 -x {5.1 9.1 0 ------- null}
h -t 20.001 -s 5 -d 9 -p ack -e 40 -c 1 -i 36 -a 1 -x {5.1 9.1 -1 ------- null}
r -t 20.001 -s 10 -d 6 -p tcp -e 40 -c 2 -i 33 -a 2 -x {10.1 6.1 0 ------- null}
+ -t 20.001 -s 6 -d 10 -p ack -e 40 -c 2 -i 37 -a 2 -x {6.1 10.1 0 ------- null}
- -t 20.001 -s 6 -d 10 -p ack -e 40 -c 2 -i 37 -a 2 -x {6.1 10.1 0 ------- null}
h -t 20.001 -s 6 -d 10 -p ack -e 40 -c 2 -i 37 -a 2 -x {6.1 10.1 -1 ------- null}
r -t 20.001 -s 11 -d 7 -p tcp -e 40 -c 3 -i 34 -a 3 -x {11.1 7.1 0 ------- null}
+ -t 20.001 -s 7 -d 11 -p ack -e 40 -c 3 -i 38 -a 3 -x {7.1 11.1 0 ------- null}
- -t 20.001 -s 7 -d 11 -p ack -e 40 -c 3 -i 38 -a 3 -x {7.1 11.1 0 ------- null}
h -t 20.001 -s 7 -d 11 -p ack -e 40 -c 3 -i 38 -a 3 -x {7.1 11.1 -1 ------- null}
r -t 20.0021 -s 4 -d 8 -p ack -e 40 -c 0 -i 35 -a 0 -x {4.1 8.1 0 ------- null}
+ -t 20.0021 -s 8 -d 4 -p tcp -e 40 -c 0 -i 39 -a 0 -x {8.1 4.1 1 ------- null}
- -t 20.0021 -s 8 -d 4 -p tcp -e 40 -c 0 -i 39 -a 0 -x {8.1 4.1 1 ------- null}
h -t 20.0021 -s 8 -d 4 -p tcp -e 40 -c 0 -i 39 -a 0 -x {8.1 4.1 -1 ------- null}
+ -t 20.0021 -s 8 -d 4 -p tcp -e 83 -c 0 -i 40 -a 0 -x {8.1 4.1 1 ------- null}
r -t 20.0021 -s 5 -d 9 -p ack -e 40 -c 1 -i 36 -a 1 -x {5.1 9.1 0 ------- null}
+ -t 20.0021 -s 9 -d 5 -p tcp -e 40 -c 1 -i 41 -a 1 -x {9.1 5.1 1 ------- null}
- -t 20.0021 -s 9 -d 5 -p tcp -e 40 -c 1 -i 41 -a 1 -x {9.1 5.1 1 ------- null}
h -t 20.0021 -s 9 -d 5 -p tcp -e 40 -c 1 -i 41 -a 1 -x {9.1 5.1 -1 ------- null}
+ -t 20.0021 -s 9 -d 5 -p tcp -e 83 -c 1 -i 42 -a 1 -x {9.1 5.1 1 ------- null}
r -t 20.0021 -s 6 -d 10 -p ack -e 40 -c 2 -i 37 -a 2 -x {6.1 10.1 0 ------- null}
+ -t 20.0021 -s 10 -d 6 -p tcp -e 40 -c 2 -i 43 -a 2 -x {10.1 6.1 1 ------- null}
- -t 20.0021 -s 10 -d 6 -p tcp -e 40 -c 2 -i 43 -a 2 -x {10.1 6.1 1 ------- null}
h -t 20.0021 -s 10 -d 6 -p tcp -e 40 -c 2 -i 43 -a 2 -x {10.1 6.1 -1 ------- null}
+ -t 20.0021 -s 10 -d 6 -p tcp -e 83 -c 2 -i 44 -a 2 -x {10.1 6.1 1 ------- null}
r -t 20.0021 -s 7 -d 11 -p ack -e 40 -c 3 -i 38 -a 3 -x {7.1 11.1 0 ------- null}
+ -t 20.0021 -s 11 -d 7 -p tcp -e 40 -c 3 -i 45 -a 3 -x {11.1 7.1 1 ------- null}
- -t 20.0021 -s 11 -d 7 -p tcp -e 40 -c 3 -i 45 -a 3 -x {11.1 7.1 1 ------- null}
h -t 20.0021 -s 11 -d 7 -p tcp -e 40 -c 3 -i 45 -a 3 -x {11.1 7.1 -1 ------- null}
+ -t 20.0021 -s 11 -d 7 -p tcp -e 83 -c 3 -i 46 -a 3 -x {11.1 7.1 1 ------- null}
- -t 20.0021 -s 8 -d 4 -p tcp -e 83 -c 0 -i 40 -a 0 -x {8.1 4.1 1 ------- null}
h -t 20.0021 -s 8 -d 4 -p tcp -e 83 -c 0 -i 40 -a 0 -x {8.1 4.1 -1 ------- null}
- -t 20.0021 -s 9 -d 5 -p tcp -e 83 -c 1 -i 42 -a 1 -x {9.1 5.1 1 ------- null}
h -t 20.0021 -s 9 -d 5 -p tcp -e 83 -c 1 -i 42 -a 1 -x {9.1 5.1 -1 ------- null}
- -t 20.0021 -s 10 -d 6 -p tcp -e 83 -c 2 -i 44 -a 2 -x {10.1 6.1 1 ------- null}
h -t 20.0021 -s 10 -d 6 -p tcp -e 83 -c 2 -i 44 -a 2 -x {10.1 6.1 -1 ------- null}
- -t 20.0021 -s 11 -d 7 -p tcp -e 83 -c 3 -i 46 -a 3 -x {11.1 7.1 1 ------- null}
h -t 20.0021 -s 11 -d 7 -p tcp -e 83 -c 3 -i 46 -a 3 -x {11.1 7.1 -1 ------- null}
r -t 20.0031 -s 8 -d 4 -p tcp -e 40 -c 0 -i 39 -a 0 -x {8.1 4.1 1 ------- null}
r -t 20.0031 -s 9 -d 5 -p tcp -e 40 -c 1 -i 41 -a 1 -x {9.1 5.1 1 ------- null}
r -t 20.0031 -s 10 -d 6 -p tcp -e 40 -c 2 -i 43 -a 2 -x {10.1 6.1 1 ------- null}
r -t 20.0031 -s 11 -d 7 -p tcp -e 40 -c 3 -i 45 -a 3 -x {11.1 7.1 1 ------- null}
r -t 20.0032 -s 8 -d 4 -p tcp -e 83 -c 0 -i 40 -a 0 -x {8.1 4.1 1 ------- null}
+ -t 20.0032 -s 4 -d 0 -p ack -e 83 -c 11 -i 47 -a 11 -x {4.3 0.2 1 ------- null}
- -t 20.0032 -s 4 -d 0 -p ack -e 83 -c 11 -i 47 -a 11 -x {4.3 0.2 1 ------- null}
h -t 20.0032 -s 4 -d 0 -p ack -e 83 -c 11 -i 47 -a 11 -x {4.3 0.2 -1 ------- null}
r -t 20.0032 -s 9 -d 5 -p tcp -e 83 -c 1 -i 42 -a 1 -x {9.1 5.1 1 ------- null}
+ -t 20.0032 -s 5 -d 2 -p tcp -e 40 -c 7 -i 48 -a 7 -x {5.2 2.3 0 ------- null}
- -t 20.0032 -s 5 -d 2 -p tcp -e 40 -c 7 -i 48 -a 7 -x {5.2 2.3 0 ------- null}
h -t 20.0032 -s 5 -d 2 -p tcp -e 40 -c 7 -i 48 -a 7 -x {5.2 2.3 -1 ------- null}
r -t 20.0032 -s 10 -d 6 -p tcp -e 83 -c 2 -i 44 -a 2 -x {10.1 6.1 1 ------- null}
+ -t 20.0032 -s 6 -d 3 -p tcp -e 40 -c 8 -i 49 -a 8 -x {6.2 3.2 0 ------- null}
- -t 20.0032 -s 6 -d 3 -p tcp -e 40 -c 8 -i 49 -a 8 -x {6.2 3.2 0 ------- null}
h -t 20.0032 -s 6 -d 3 -p tcp -e 40 -c 8 -i 49 -a 8 -x {6.2 3.2 -1 ------- null}
r -t 20.0032 -s 11 -d 7 -p tcp -e 83 -c 3 -i 46 -a 3 -x {11.1 7.1 1 ------- null}
+ -t 20.0032 -s 7 -d 3 -p tcp -e 40 -c 9 -i 50 -a 9 -x {7.2 3.3 0 ------- null}
- -t 20.0032 -s 7 -d 3 -p tcp -e 40 -c 9 -i 50 -a 9 -x {7.2 3.3 0 ------- null}
h -t 20.0032 -s 7 -d 3 -p tcp -e 40 -c 9 -i 50 -a 9 -x {7.2 3.3 -1 ------- null}
r -t 20.0132 -s 4 -d 0 -p ack -e 83 -c 11 -i 47 -a 11 -x {4.3 0.2 1 ------- null}
+ -t 20.0132 -s 0 -d 4 -p tcp -e 576 -c 11 -i 51 -a 11 -x {0.2 4.3 13 ---A--- null}
- -t 20.0132 -s 0 -d 4 -p tcp -e 576 -c 11 -i 51 -a 11 -x {0.2 4.3 13 ---A--- null}
h -t 20.0132 -s 0 -d 4 -p tcp -e 576 -c 11 -i 51 -a 11 -x {0.2 4.3 -1 ---A--- null}
r -t 20.0134 -s 5 -d 2 -p tcp -e 40 -c 7 -i 48 -a 7 -x {5.2 2.3 0 ------- null}
+ -t 20.0134 -s 2 -d 5 -p ack -e 40 -c 7 -i 52 -a 7 -x {2.3 5.2 0 ------- null}
- -t 20.0134 -s 2 -d 5 -p ack -e 40 -c 7 -i 52 -a 7 -x {2.3 5.2 0 ------- null}
h -t 20.0134 -s 2 -d 5 -p ack -e 40 -c 7 -i 52 -a 7 -x {2.3 5.2 -1 ------- null}
r -t 20.0134 -s 6 -d 3 -p tcp -e 40 -c 8 -i 49 -a 8 -x {6.2 3.2 0 ------- null}
+ -t 20.0134 -s 3 -d 6 -p ack -e 40 -c 8 -i 53 -a 8 -x {3.2 6.2 0 ------- null}
- -t 20.0134 -s 3 -d 6 -p ack -e 40 -c 8 -i 53 -a 8 -x {3.2 6.2 0 ------- null}
h -t 20.0134 -s 3 -d 6 -p ack -e 40 -c 8 -i 53 -a 8 -x {3.2 6.2 -1 ------- null}
r -t 20.0134 -s 7 -d 3 -p tcp -e 40 -c 9 -i 50 -a 9 -x {7.2 3.3 0 ------- null}
+ -t 20.0134 -s 3 -d 7 -p ack -e 40 -c 9 -i 54 -a 9 -x {3.3 7.2 0 ------- null}
- -t 20.0134 -s 3 -d 7 -p ack -e 40 -c 9 -i 54 -a 9 -x {3.3 7.2 0 ------- null}
h -t 20.0134 -s 3 -d 7 -p ack -e 40 -c 9 -i 54 -a 9 -x {3.3 7.2 -1 ------- null}
r -t 20.0236 -s 2 -d 5 -p ack -e 40 -c 7 -i 52 -a 7 -x {2.3 5.2 0 ------- null}
+ -t 20.0236 -s 5 -d 2 -p tcp -e 40 -c 7 -i 55 -a 7 -x {5.2 2.3 1 ------- null}
- -t 20.0236 -s 5 -d 2 -p tcp -e 40 -c 7 -i 55 -a 7 -x {5.2 2.3 1 ------- null}
h -t 20.0236 -s 5 -d 2 -p tcp -e 40 -c 7 -i 55 -a 7 -x {5.2 2.3 -1 ------- null}
+ -t 20.0236 -s 5 -d 2 -p tcp -e 83 -c 7 -i 56 -a 7 -x {5.2 2.3 1 ------- null}
r -t 20.0236 -s 3 -d 6 -p ack -e 40 -c 8 -i 53 -a 8 -x {3.2 6.2 0 ------- null}
+ -t 20.0236 -s 6 -d 3 -p tcp -e 40 -c 8 -i 57 -a 8 -x {6.2 3.2 1 ------- null}
- -t 20.0236 -s 6 -d 3 -p tcp -e 40 -c 8 -i 57 -a 8 -x {6.2 3.2 1 ------- null}
h -t 20.0236 -s 6 -d 3 -p tcp -e 40 -c 8 -i 57 -a 8 -x {6.2 3.2 -1 ------- null}
+ -t 20.0236 -s 6 -d 3 -p tcp -e 83 -c 8 -i 58 -a 8 -x {6.2 3.2 1 ------- null}
r -t 20.0236 -s 3 -d 7 -p ack -e 40 -c 9 -i 54 -a 9 -x {3.3 7.2 0 ------- null}
+ -t 20.0236 -s 7 -d 3 -p tcp -e 40 -c 9 -i 59 -a 9 -x {7.2 3.3 1 ------- null}
- -t 20.0236 -s 7 -d 3 -p tcp -e 40 -c 9 -i 59 -a 9 -x {7.2 3.3 1 ------- null}
h -t 20.0236 -s 7 -d 3 -p tcp -e 40 -c 9 -i 59 -a 9 -x {7.2 3.3 -1 ------- null}
+ -t 20.0236 -s 7 -d 3 -p tcp -e 83 -c 9 -i 60 -a 9 -x {7.2 3.3 1 ------- null}
r -t 20.0237 -s 0 -d 4 -p tcp -e 576 -c 11 -i 51 -a 11 -x {0.2 4.3 13 ---A--- null}
+ -t 20.0237 -s 4 -d 0 -p ack -e 40 -c 11 -i 61 -a 11 -x {4.3 0.2 44 ------- null}
- -t 20.0237 -s 4 -d 0 -p ack -e 40 -c 11 -i 61 -a 11 -x {4.3 0.2 44 ------- null}
h -t 20.0237 -s 4 -d 0 -p ack -e 40 -c 11 -i 61 -a 11 -x {4.3 0.2 -1 ------- null}
- -t 20.0238 -s 5 -d 2 -p tcp -e 83 -c 7 -i 56 -a 7 -x {5.2 2.3 1 ------- null}
h -t 20.0238 -s 5 -d 2 -p tcp -e 83 -c 7 -i 56 -a 7 -x {5.2 2.3 -1 ------- null}
- -t 20.0238 -s 6 -d 3 -p tcp -e 83 -c 8 -i 58 -a 8 -x {6.2 3.2 1 ------- null}
h -t 20.0238 -s 6 -d 3 -p tcp -e 83 -c 8 -i 58 -a 8 -x {6.2 3.2 -1 ------- null}
- -t 20.0238 -s 7 -d 3 -p tcp -e 83 -c 9 -i 60 -a 9 -x {7.2 3.3 1 ------- null}
h -t 20.0238 -s 7 -d 3 -p tcp -e 83 -c 9 -i 60 -a 9 -x {7.2 3.3 -1 ------- null}
r -t 20.0337 -s 4 -d 0 -p ack -e 40 -c 11 -i 61 -a 11 -x {4.3 0.2 44 ------- null}
+ -t 20.0337 -s 0 -d 4 -p tcp -e 528 -c 11 -i 62 -a 11 -x {0.2 4.3 549 ------- null}
- -t 20.0337 -s 0 -d 4 -p tcp -e 528 -c 11 -i 62 -a 11 -x {0.2 4.3 549 ------- null}
h -t 20.0337 -s 0 -d 4 -p tcp -e 528 -c 11 -i 62 -a 11 -x {0.2 4.3 -1 ------- null}
r -t 20.0338 -s 7 -d 3 -p tcp -e 40 -c 9 -i 59 -a 9 -x {7.2 3.3 1 ------- null}
r -t 20.0338 -s 6 -d 3 -p tcp -e 40 -c 8 -i 57 -a 8 -x {6.2 3.2 1 ------- null}
r -t 20.0338 -s 5 -d 2 -p tcp -e 40 -c 7 -i 55 -a 7 -x {5.2 2.3 1 ------- null}
r -t 20.0342 -s 7 -d 3 -p tcp -e 83 -c 9 -i 60 -a 9 -x {7.2 3.3 1 ------- null}
+ -t 20.0342 -s 3 -d 12 -p tcp -e 40 -c 5 -i 63 -a 5 -x {3.1 1.2 0 ------- null}
- -t 20.0342 -s 3 -d 12 -p tcp -e 40 -c 5 -i 63 -a 5 -x {3.1 1.2 0 ------- null}
h -t 20.0342 -s 3 -d 12 -p tcp -e 40 -c 5 -i 63 -a 5 -x {3.1 1.2 -1 ------- null}
r -t 20.0342 -s 6 -d 3 -p tcp -e 83 -c 8 -i 58 -a 8 -x {6.2 3.2 1 ------- null}
r -t 20.0342 -s 5 -d 2 -p tcp -e 83 -c 7 -i 56 -a 7 -x {5.2 2.3 1 ------- null}
+ -t 20.0342 -s 2 -d 4 -p ack -e 83 -c 6 -i 64 -a 6 -x {2.2 4.2 1 ------- null}
- -t 20.0342 -s 2 -d 4 -p ack -e 83 -c 6 -i 64 -a 6 -x {2.2 4.2 1 ------- null}
h -t 20.0342 -s 2 -d 4 -p ack -e 83 -c 6 -i 64 -a 6 -x {2.2 4.2 -1 ------- null}
r -t 20.0441 -s 0 -d 4 -p tcp -e 528 -c 11 -i 62 -a 11 -x {0.2 4.3 549 ------- null}
+ -t 20.0441 -s 4 -d 8 -p ack -e 576 -c 0 -i 65 -a 0 -x {4.1 8.1 1 ------- null}
- -t 20.0441 -s 4 -d 8 -p ack -e 576 -c 0 -i 65 -a 0 -x {4.1 8.1 1 ------- null}
h -t 20.0441 -s 4 -d 8 -p ack -e 576 -c 0 -i 65 -a 0 -x {4.1 8.1 -1 ------- null}
n -t 20.044144000000006 -s 4 -S COLOR -c green -o black
r -t 20.0447 -s 2 -d 4 -p ack -e 83 -c 6 -i 64 -a 6 -x {2.2 4.2 1 ------- null}